# LAMMPS data file written by OVITO Basic 3.5.4
3392 atoms
4096 bonds
7296 angles
12288 dihedrals
1536 impropers
7 atom types
6 bond types
9 angle types
11 dihedral types
3 improper types
0.0 52.058726 xlo xhi
0.0 52.063168 ylo yhi
0.0 52.056692 zlo zhi
0.006304 -0.004338 0.005326 xy xz yz

Masses

1 15.9994  # buck6d->(o4_zn4@zn4o)|Zn4O_benz/gaussian->(o4_zn4@zn4o)|Zn4O_benz
2 65.38  # buck6d->(zn4_o4@zn4o)|Zn4O_benz/gaussian->(zn4_o4@zn4o)|Zn4O_benz
3 15.9994  # buck6d->(o2_c1zn1@co2)|Zn4O_benz/gaussian->(o2_c1zn1@co2)|Zn4O_benz
4 12.0107  # buck6d->(c3_c1o2@co2)|Zn4O_benz/gaussian->(c3_c1o2@co2)|Zn4O_benz
5 12.0107  # buck6d->(c3_c2h1@ph)|benzene/gaussian->(c3_c2h1@ph)|benzene
6 12.0107  # buck6d->(c3_c2h1@ph)|benzene/gaussian->(c3_c3@ph)|Zn4O_benz
7 1.0079  # buck6d->(h1_c1@ph)|benzene/gaussian->(h1_c1@ph)|benzene

Atoms  # full

1 1 1 -1.78 0.002219 26.027772 26.025742
2 1 2 1.42 24.896538 1.128038 1.131137
3 1 2 1.42 1.138359 24.890732 1.131494
4 1 2 1.42 1.133187 1.130373 24.891744
5 1 2 1.42 24.897472 24.893537 24.891798
6 1 3 -0.72 0.80396 22.98927 0.797171
7 1 4 0.61 0.00198 22.413041 26.025774
8 1 3 -0.72 25.231668 22.992122 25.22605
9 1 3 -0.72 25.23189 25.22784 22.990538
10 1 4 0.61 0.002296 26.027568 22.411611
11 1 3 -0.72 0.798768 0.795883 22.99051
12 1 3 -0.72 0.799181 3.031867 25.225901
13 1 4 0.61 -5.86e-04 3.610962 26.025528
14 1 3 -0.72 25.231005 3.029425 0.796798
15 1 3 -0.72 3.039726 25.225131 0.797177
16 1 4 0.61 3.616509 26.027608 26.025839
17 1 3 -0.72 3.034432 0.795834 25.226146
18 1 3 -0.72 22.995222 0.793757 0.796709
19 1 4 0.61 22.417254 26.027951 26.025619
20 1 3 -0.72 22.996173 25.227939 25.226122
21 1 3 -0.72 25.230773 0.793716 3.032419
22 1 4 0.61 0.004068 26.025405 3.611479
23 1 3 -0.72 0.803689 25.225404 3.032707
24 1 5 -0.12 0.859655 5.805305 25.166032
25 1 5 -0.12 0.859892 7.20269 25.166105
26 1 6 0.18 9.6e-05 7.900774 26.02568
27 1 5 -0.12 25.171593 7.200228 0.856832
28 1 5 -0.12 25.171359 5.802845 0.856761
29 1 6 0.18 -3.61e-04 5.107423 26.025552
30 1 7 0.12 1.533627 7.741671 24.492778
31 1 7 0.12 24.498024 7.739363 1.530203
32 1 7 0.12 24.497601 5.263866 1.530068
33 1 7 0.12 1.533203 5.266167 24.492642
34 1 5 -0.12 25.170526 0.854063 5.805589
35 1 5 -0.12 25.170377 0.854259 7.202946
36 1 6 0.18 0.003604 26.025958 7.901071
37 1 5 -0.12 0.863167 25.165863 7.203352
38 1 5 -0.12 0.863312 25.165664 5.805996
39 1 6 0.18 0.003898 26.02557 5.10787
40 1 7 0.12 24.497016 1.528025 7.741847
41 1 7 0.12 1.536419 24.492246 7.742573
42 1 7 0.12 1.536666 24.491887 5.267097
43 1 7 0.12 24.497272 1.527678 5.266369
44 1 5 -0.12 20.221931 0.85353 0.85695
45 1 5 -0.12 18.824567 0.853458 0.857021
46 1 6 0.18 18.127614 26.027762 26.025827
47 1 5 -0.12 18.825549 25.167884 25.166223
48 1 5 -0.12 20.222912 25.167949 25.166159
49 1 6 0.18 20.920848 26.027894 26.025695
50 1 7 0.12 18.285504 1.527063 1.530413
51 1 7 0.12 18.286488 24.49423 24.492879
52 1 7 0.12 20.761973 24.494344 24.492766
53 1 7 0.12 20.760993 1.527188 1.530291
54 1 1 -1.78 13.016881 26.027803 26.025717
55 1 2 1.42 14.14998 1.127797 1.131333
56 1 2 1.42 14.150969 24.893345 24.891947
57 1 2 1.42 11.87973 1.130589 24.891639
58 1 2 1.42 11.884959 24.890897 1.13134
59 1 3 -0.72 13.816559 22.99193 25.226186
60 1 4 0.61 13.016603 22.413027 26.025766
61 1 3 -0.72 12.219009 22.989431 0.797071
62 1 3 -0.72 9.983698 25.225393 0.796985
63 1 4 0.61 9.40259 26.027893 26.025676
64 1 3 -0.72 9.978377 0.796174 25.226033
65 1 3 -0.72 12.214217 3.032053 25.225876
66 1 4 0.61 13.01405 3.61095 26.025594
67 1 3 -0.72 13.815867 3.02921 0.797002
68 1 3 -0.72 13.81667 25.227674 22.990682
69 1 4 0.61 13.017088 26.027501 22.411632
70 1 3 -0.72 12.214291 0.795886 22.990416
71 1 3 -0.72 13.815474 0.793519 3.032582
72 1 4 0.61 13.018901 26.025322 3.611496
73 1 3 -0.72 12.219353 25.225358 3.032587
74 1 3 -0.72 16.051292 0.793401 0.797088
75 1 4 0.61 16.631209 26.027693 26.02589
76 1 3 -0.72 16.052272 25.227683 25.226399
77 1 5 -0.12 12.154667 5.805593 25.165974
78 1 5 -0.12 12.154937 7.202978 25.166029
79 1 6 0.18 13.01486 7.900782 26.02571
80 1 5 -0.12 13.876717 7.199943 0.856967
81 1 5 -0.12 13.87645 5.802557 0.856909
82 1 6 0.18 13.014331 5.107416 26.025598
83 1 7 0.12 11.481478 7.742181 24.492605
84 1 7 0.12 14.550393 7.738851 1.530412
85 1 7 0.12 14.549932 5.263355 1.53031
86 1 7 0.12 11.481006 5.266683 24.492512
87 1 5 -0.12 13.875005 0.854001 5.805781
88 1 5 -0.12 13.874792 0.85423 7.203135
89 1 6 0.18 13.018258 26.026013 7.901058
90 1 5 -0.12 12.158764 25.166001 7.203155
91 1 5 -0.12 12.158978 25.165771 5.805801
92 1 6 0.18 13.018673 26.025564 5.107878
93 1 7 0.12 14.548082 1.527943 7.742191
94 1 7 0.12 11.485313 24.492463 7.742226
95 1 7 0.12 11.485687 24.492059 5.266744
96 1 7 0.12 14.548461 1.527536 5.266712
97 1 5 -0.12 7.205002 0.855944 25.165997
98 1 5 -0.12 5.807638 0.855854 25.166053
99 1 6 0.18 5.112922 26.027654 26.02581
100 1 5 -0.12 5.813112 25.165281 0.857165
101 1 5 -0.12 7.210478 25.165366 0.857104
102 1 6 0.18 7.906176 26.027823 26.0257
103 1 7 0.12 5.268514 1.529325 24.492576
104 1 7 0.12 5.274118 24.491749 1.530686
105 1 7 0.12 7.749602 24.491892 1.530577
106 1 7 0.12 7.743995 1.529481 24.492479
107 1 1 -1.78 6.24e-04 13.012011 26.025717
108 1 2 1.42 1.136875 14.143589 1.131333
109 1 2 1.42 1.134712 11.877553 24.891947
110 1 2 1.42 24.895987 14.146381 24.891639
111 1 2 1.42 24.898064 11.875105 1.13134
112 1 3 -0.72 0.800301 9.976138 25.226186
113 1 4 0.61 3.46e-04 9.397235 26.025766
114 1 3 -0.72 25.232114 9.973639 0.797071
115 1 3 -0.72 22.996803 12.209601 0.796985
116 1 4 0.61 22.415696 13.012101 26.025676
117 1 3 -0.72 22.994634 13.811966 25.226033
118 1 3 -0.72 25.230474 16.047845 25.225876
119 1 4 0.61 9.45e-04 16.626742 26.025594
120 1 3 -0.72 0.802762 16.045002 0.797002
121 1 3 -0.72 0.800413 12.211882 22.990682
122 1 4 0.61 8.3e-04 13.011709 22.411632
123 1 3 -0.72 25.230549 13.811678 22.990416
124 1 3 -0.72 0.802369 13.809311 3.032582
125 1 4 0.61 0.002643 13.00953 3.611496
126 1 3 -0.72 25.232458 12.209566 3.032587
127 1 3 -0.72 3.038186 13.809193 0.797088
128 1 4 0.61 3.614952 13.011901 26.02589
129 1 3 -0.72 3.036015 12.211891 25.226399
130 1 5 -0.12 25.170925 18.821385 25.165974
131 1 5 -0.12 25.171194 20.21877 25.166029
132 1 6 0.18 0.001755 20.916574 26.02571
133 1 5 -0.12 0.863611 20.215735 0.856967
134 1 5 -0.12 0.863345 18.818349 0.856909
135 1 6 0.18 0.001226 18.123208 26.025598
136 1 7 0.12 24.497735 20.757973 24.492605
137 1 7 0.12 1.537288 20.754643 1.530412
138 1 7 0.12 1.536826 18.279147 1.53031
139 1 7 0.12 24.497264 18.282475 24.492512
140 1 5 -0.12 0.861899 13.869793 5.805781
141 1 5 -0.12 0.861686 13.870022 7.203135
142 1 6 0.18 0.002 13.010221 7.901058
143 1 5 -0.12 25.171869 12.150209 7.203155
144 1 5 -0.12 25.172083 12.149979 5.805801
145 1 6 0.18 0.002416 13.009772 5.107878
146 1 7 0.12 1.534976 14.543735 7.742191
147 1 7 0.12 24.498418 11.476671 7.742226
148 1 7 0.12 24.498792 11.476267 5.266744
149 1 7 0.12 1.535355 14.543328 5.266712
150 1 5 -0.12 20.22126 13.871736 25.165997
151 1 5 -0.12 18.823895 13.871646 25.166053
152 1 6 0.18 18.126028 13.011862 26.02581
153 1 5 -0.12 18.826217 12.149489 0.857165
154 1 5 -0.12 20.223584 12.149574 0.857104
155 1 6 0.18 20.919282 13.012031 26.0257
156 1 7 0.12 18.284771 14.545117 24.492576
157 1 7 0.12 18.287224 11.475957 1.530686
158 1 7 0.12 20.762708 11.4761 1.530577
159 1 7 0.12 20.760253 14.545273 24.492479
160 1 1 -1.78 13.015325 13.01198 26.025742
161 1 2 1.42 11.883433 14.14383 1.131137
162 1 2 1.42 14.151464 11.87494 1.131494
163 1 2 1.42 14.149444 14.146165 24.891744
164 1 2 1.42 11.881215 11.877745 24.891798
165 1 3 -0.72 13.817065 9.973478 0.797171
166 1 4 0.61 13.015085 9.397249 26.025774
167 1 3 -0.72 12.215411 9.97633 25.22605
168 1 3 -0.72 12.215632 12.212048 22.990538
169 1 4 0.61 13.015402 13.011776 22.411611
170 1 3 -0.72 13.815025 13.811675 22.99051
171 1 3 -0.72 13.815438 16.047659 25.225901
172 1 4 0.61 13.015671 16.626754 26.025528
173 1 3 -0.72 12.217899 16.045217 0.796798
174 1 3 -0.72 16.052831 12.209339 0.797177
175 1 4 0.61 16.629615 13.011816 26.025839
176 1 3 -0.72 16.050689 13.811626 25.226146
177 1 3 -0.72 9.982117 13.809549 0.796709
178 1 4 0.61 9.400997 13.012159 26.025619
179 1 3 -0.72 9.979915 12.212147 25.226122
180 1 3 -0.72 12.217668 13.809508 3.032419
181 1 4 0.61 13.017174 13.009613 3.611479
182 1 3 -0.72 13.816794 12.209612 3.032707
183 1 5 -0.12 13.875913 18.821097 25.166032
184 1 5 -0.12 13.87615 20.218482 25.166105
185 1 6 0.18 13.016354 20.916566 26.02568
186 1 5 -0.12 12.158488 20.21602 0.856832
187 1 5 -0.12 12.158253 18.818637 0.856761
188 1 6 0.18 13.015896 18.123215 26.025552
189 1 7 0.12 14.549884 20.757463 24.492778
190 1 7 0.12 11.484918 20.755155 1.530203
191 1 7 0.12 11.484496 18.279658 1.530068
192 1 7 0.12 14.549461 18.281959 24.492642
193 1 5 -0.12 12.15742 13.869855 5.805589
194 1 5 -0.12 12.157272 13.870051 7.202946
195 1 6 0.18 13.016709 13.010166 7.901071
196 1 5 -0.12 13.876273 12.150071 7.203352
197 1 5 -0.12 13.876418 12.149872 5.805996
198 1 6 0.18 13.017003 13.009778 5.10787
199 1 7 0.12 11.483911 14.543817 7.741847
200 1 7 0.12 14.549524 11.476454 7.742573
201 1 7 0.12 14.549771 11.476095 5.267097
202 1 7 0.12 11.484166 14.54347 5.266369
203 1 5 -0.12 7.208826 13.869322 0.85695
204 1 5 -0.12 5.811461 13.86925 0.857021
205 1 6 0.18 5.111357 13.01197 26.025827
206 1 5 -0.12 5.809291 12.152092 25.166223
207 1 5 -0.12 7.206654 12.152157 25.166159
208 1 6 0.18 7.90459 13.012102 26.025695
209 1 7 0.12 5.272398 14.542855 1.530413
210 1 7 0.12 5.27023 11.478438 24.492879
211 1 7 0.12 7.745716 11.478552 24.492766
212 1 7 0.12 7.747888 14.54298 1.530291
213 1 1 -1.78 0.003284 26.026471 13.011544
214 1 2 1.42 1.134214 1.129129 14.145506
215 1 2 1.42 1.137372 24.892014 11.877774
216 1 2 1.42 24.895496 1.129257 11.877466
217 1 2 1.42 24.898556 24.892229 14.145513
218 1 3 -0.72 0.802962 22.990598 12.212013
219 1 4 0.61 0.003006 22.411695 13.011593
220 1 3 -0.72 25.232606 22.990763 13.811244
221 1 3 -0.72 22.997295 25.226724 13.811158
222 1 4 0.61 22.418356 26.026561 13.011503
223 1 3 -0.72 22.994143 0.794842 12.21186
224 1 3 -0.72 25.229983 3.030722 12.211703
225 1 4 0.61 4.53e-04 3.609618 13.011421
226 1 3 -0.72 0.800101 3.030541 13.811175
227 1 3 -0.72 0.803073 25.226342 9.976509
228 1 4 0.61 0.003491 26.026169 9.397459
229 1 3 -0.72 25.230057 0.794555 9.976243
230 1 3 -0.72 0.799708 0.794851 16.046755
231 1 4 0.61 0.003135 26.026654 16.625669
232 1 3 -0.72 25.23295 25.226689 16.04676
233 1 3 -0.72 3.035526 0.794732 13.811261
234 1 4 0.61 3.617612 26.026361 13.011717
235 1 3 -0.72 3.038675 25.226352 12.212226
236 1 5 -0.12 25.170433 5.804261 12.151801
237 1 5 -0.12 25.170703 7.201647 12.151856
238 1 6 0.18 0.001263 7.899451 13.011537
239 1 5 -0.12 0.860951 7.201275 13.87114
240 1 5 -0.12 0.860684 5.803888 13.871082
241 1 6 0.18 7.34e-04 5.106085 13.011425
242 1 7 0.12 24.497244 7.74085 11.478432
243 1 7 0.12 1.534627 7.740183 14.544585
244 1 7 0.12 1.534166 5.264686 14.544483
245 1 7 0.12 24.496772 5.265352 11.478339
246 1 5 -0.12 0.859239 0.855332 18.819954
247 1 5 -0.12 0.859026 0.855561 20.217308
248 1 6 0.18 0.002492 26.027344 20.915231
249 1 5 -0.12 25.172361 25.167333 20.217328
250 1 5 -0.12 25.172575 25.167103 18.819974
251 1 6 0.18 0.002907 26.026895 18.122051
252 1 7 0.12 1.532316 1.529275 20.756364
253 1 7 0.12 24.49891 24.493794 20.756399
254 1 7 0.12 24.499284 24.49339 18.280917
255 1 7 0.12 1.532695 1.528867 18.280885
256 1 5 -0.12 20.220768 0.854613 12.151824
257 1 5 -0.12 18.823404 0.854523 12.15188
258 1 6 0.18 18.128688 26.026322 13.011637
259 1 5 -0.12 18.826709 25.166612 13.871338
260 1 5 -0.12 20.224075 25.166697 13.871277
261 1 6 0.18 20.921942 26.026492 13.011527
262 1 7 0.12 18.28428 1.527994 11.478403
263 1 7 0.12 18.287715 24.493081 14.544859
264 1 7 0.12 20.763199 24.493223 14.54475
265 1 7 0.12 20.759761 1.528149 11.478306
266 1 1 -1.78 13.017985 26.02644 13.011569
267 1 2 1.42 11.880772 1.12937 14.14531
268 1 2 1.42 14.151956 24.892064 14.145667
269 1 2 1.42 14.148953 1.129041 11.877571
270 1 2 1.42 11.883875 24.892206 11.877625
271 1 3 -0.72 13.817557 22.990602 13.811344
272 1 4 0.61 13.017746 22.41171 13.011601
273 1 3 -0.72 12.218071 22.990791 12.211877
274 1 3 -0.72 12.218293 25.226508 9.976365
275 1 4 0.61 13.018062 26.026237 9.397438
276 1 3 -0.72 13.814534 0.794551 9.976337
277 1 3 -0.72 13.814947 3.030535 12.211728
278 1 4 0.61 13.01518 3.609631 13.011355
279 1 3 -0.72 12.215239 3.030757 13.810971
280 1 3 -0.72 16.053323 25.226462 13.81135
281 1 4 0.61 16.632275 26.026276 13.011666
282 1 3 -0.72 16.050198 0.794503 12.211973
283 1 3 -0.72 9.979456 0.795089 13.810882
284 1 4 0.61 9.403657 26.02662 13.011446
285 1 3 -0.72 9.982576 25.226608 12.211949
286 1 3 -0.72 12.215007 0.795047 16.046592
287 1 4 0.61 13.017665 26.026736 16.625652
288 1 3 -0.72 13.817286 25.226735 16.04688
289 1 5 -0.12 13.875421 5.803973 12.151859
290 1 5 -0.12 13.875658 7.201358 12.151932
291 1 6 0.18 13.015862 7.899443 13.011507
292 1 5 -0.12 12.155827 7.20156 13.871005
293 1 5 -0.12 12.155593 5.804177 13.870934
294 1 6 0.18 13.015405 5.106091 13.011379
295 1 7 0.12 14.549393 7.740339 11.478605
296 1 7 0.12 11.482258 7.740695 14.544376
297 1 7 0.12 11.481835 5.265198 14.544241
298 1 7 0.12 14.548969 5.264836 11.478469
299 1 5 -0.12 12.15476 0.855394 18.819762
300 1 5 -0.12 12.154611 0.85559 20.217119
301 1 6 0.18 13.017201 26.02729 20.915244
302 1 5 -0.12 13.876764 25.167195 20.217525
303 1 5 -0.12 13.876909 25.166996 18.820169
304 1 6 0.18 13.017495 26.026901 18.122043
305 1 7 0.12 11.48125 1.529357 20.75602
306 1 7 0.12 14.550016 24.493578 20.756746
307 1 7 0.12 14.550263 24.493219 18.28127
308 1 7 0.12 11.481506 1.529009 18.280542
309 1 5 -0.12 7.206165 0.854861 13.871123
310 1 5 -0.12 5.808801 0.85479 13.871194
311 1 6 0.18 5.114017 26.026431 13.011654
312 1 5 -0.12 5.811952 25.166552 12.15205
313 1 5 -0.12 7.209315 25.166618 12.151986
314 1 6 0.18 7.907251 26.026563 13.011522
315 1 7 0.12 5.269738 1.528395 14.544586
316 1 7 0.12 5.272891 24.492898 11.478706
317 1 7 0.12 7.748376 24.493012 11.478593
318 1 7 0.12 7.745227 1.52852 14.544464
319 1 1 -1.78 0.001728 13.010648 13.011569
320 1 2 1.42 24.89703 14.145162 14.14531
321 1 2 1.42 1.135698 11.876272 14.145667
322 1 2 1.42 1.135847 14.144833 11.877571
323 1 2 1.42 24.896981 11.876414 11.877625
324 1 3 -0.72 0.801299 9.97481 13.811344
325 1 4 0.61 0.001488 9.395918 13.011601
326 1 3 -0.72 25.231177 9.974999 12.211877
327 1 3 -0.72 25.231398 12.210716 9.976365
328 1 4 0.61 0.001805 13.010445 9.397438
329 1 3 -0.72 0.801428 13.810343 9.976337
330 1 3 -0.72 0.801841 16.046327 12.211728
331 1 4 0.61 0.002074 16.625423 13.011355
332 1 3 -0.72 25.231496 16.046549 13.810971
333 1 3 -0.72 3.037065 12.21067 13.81135
334 1 4 0.61 3.616018 13.010484 13.011666
335 1 3 -0.72 3.037092 13.810295 12.211973
336 1 3 -0.72 22.995714 13.810881 13.810882
337 1 4 0.61 22.416763 13.010828 13.011446
338 1 3 -0.72 22.995681 12.210816 12.211949
339 1 3 -0.72 25.231265 13.810839 16.046592
340 1 4 0.61 0.001408 13.010944 16.625652
341 1 3 -0.72 0.801028 12.210943 16.04688
342 1 5 -0.12 0.862316 18.819765 12.151859
343 1 5 -0.12 0.862553 20.21715 12.151932
344 1 6 0.18 0.002757 20.915235 13.011507
345 1 5 -0.12 25.172085 20.217352 13.871005
346 1 5 -0.12 25.17185 18.819969 13.870934
347 1 6 0.18 0.002299 18.121883 13.011379
348 1 7 0.12 1.536287 20.756131 11.478605
349 1 7 0.12 24.498515 20.756487 14.544376
350 1 7 0.12 24.498093 18.28099 14.544241
351 1 7 0.12 1.535864 18.280628 11.478469
352 1 5 -0.12 25.171017 13.871186 18.819762
353 1 5 -0.12 25.170869 13.871382 20.217119
354 1 6 0.18 9.43e-04 13.011498 20.915244
355 1 5 -0.12 0.860507 12.151403 20.217525
356 1 5 -0.12 0.860652 12.151204 18.820169
357 1 6 0.18 0.001237 13.011109 18.122043
358 1 7 0.12 24.497508 14.545149 20.75602
359 1 7 0.12 1.533758 11.477786 20.756746
360 1 7 0.12 1.534005 11.477427 18.28127
361 1 7 0.12 24.497763 14.544801 18.280542
362 1 5 -0.12 20.222423 13.870653 13.871123
363 1 5 -0.12 18.825058 13.870582 13.871194
364 1 6 0.18 18.127123 13.010639 13.011654
365 1 5 -0.12 18.825057 12.15076 12.15205
366 1 5 -0.12 20.22242 12.150826 12.151986
367 1 6 0.18 20.920356 13.010771 13.011522
368 1 7 0.12 18.285995 14.544187 14.544586
369 1 7 0.12 18.285996 11.477106 11.478706
370 1 7 0.12 20.761482 11.47722 11.478593
371 1 7 0.12 20.761485 14.544312 14.544464
372 1 1 -1.78 13.01639 13.010679 13.011544
373 1 2 1.42 14.150472 14.144921 14.145506
374 1 2 1.42 14.150478 11.876222 11.877774
375 1 2 1.42 11.88239 14.145049 11.877466
376 1 2 1.42 11.882298 11.876437 14.145513
377 1 3 -0.72 13.816067 9.974806 12.212013
378 1 4 0.61 13.016112 9.395903 13.011593
379 1 3 -0.72 12.216348 9.974971 13.811244
380 1 3 -0.72 9.981037 12.210932 13.811158
381 1 4 0.61 9.402099 13.010769 13.011503
382 1 3 -0.72 9.981037 13.810634 12.21186
383 1 3 -0.72 12.216877 16.046514 12.211703
384 1 4 0.61 13.016711 16.62541 13.011421
385 1 3 -0.72 13.816359 16.046333 13.811175
386 1 3 -0.72 13.816179 12.21055 9.976509
387 1 4 0.61 13.016596 13.010377 9.397459
388 1 3 -0.72 12.216952 13.810347 9.976243
389 1 3 -0.72 13.815966 13.810643 16.046755
390 1 4 0.61 13.01624 13.010862 16.625669
391 1 3 -0.72 12.216692 12.210897 16.04676
392 1 3 -0.72 16.051783 13.810524 13.811261
393 1 4 0.61 16.630718 13.010569 13.011717
394 1 3 -0.72 16.051781 12.21056 12.212226
395 1 5 -0.12 12.157328 18.820053 12.151801
396 1 5 -0.12 12.157597 20.217439 12.151856
397 1 6 0.18 13.017521 20.915243 13.011537
398 1 5 -0.12 13.877208 20.217067 13.87114
399 1 5 -0.12 13.876942 18.81968 13.871082
400 1 6 0.18 13.016992 18.121877 13.011425
401 1 7 0.12 11.484138 20.756642 11.478432
402 1 7 0.12 14.550885 20.755975 14.544585
403 1 7 0.12 14.550423 18.280478 14.544483
404 1 7 0.12 11.483667 18.281144 11.478339
405 1 5 -0.12 13.875496 13.871124 18.819954
406 1 5 -0.12 13.875283 13.871353 20.217308
407 1 6 0.18 13.015597 13.011552 20.915231
408 1 5 -0.12 12.156103 12.151541 20.217328
409 1 5 -0.12 12.156317 12.151311 18.819974
410 1 6 0.18 13.016013 13.011103 18.122051
411 1 7 0.12 14.548573 14.545067 20.756364
412 1 7 0.12 11.482652 11.478002 20.756399
413 1 7 0.12 11.483026 11.477598 18.280917
414 1 7 0.12 14.548952 14.544659 18.280885
415 1 5 -0.12 7.207663 13.870405 12.151824
416 1 5 -0.12 5.810298 13.870315 12.15188
417 1 6 0.18 5.112431 13.01053 13.011637
418 1 5 -0.12 5.810451 12.15082 13.871338
419 1 5 -0.12 7.207818 12.150905 13.871277
420 1 6 0.18 7.905685 13.0107 13.011527
421 1 7 0.12 5.271174 14.543786 11.478403
422 1 7 0.12 5.271458 11.477289 14.544859
423 1 7 0.12 7.746942 11.477431 14.54475
424 1 7 0.12 7.746656 14.543941 11.478306
425 2 1 -1.78 5.0e-05 26.030435 52.054088
426 2 2 1.42 24.894369 1.130701 27.159483
427 2 2 1.42 1.13619 24.893395 27.15984
428 2 2 1.42 1.131018 1.133036 50.92009
429 2 2 1.42 24.895303 24.8962 50.920144
430 2 3 -0.72 0.801791 22.991933 26.825517
431 2 4 0.61 -1.89e-04 22.415704 52.05412
432 2 3 -0.72 25.229499 22.994785 51.254396
433 2 3 -0.72 25.229721 25.230503 49.018884
434 2 4 0.61 1.27e-04 26.030231 48.439957
435 2 3 -0.72 0.796599 0.798546 49.018856
436 2 3 -0.72 0.797012 3.03453 51.254247
437 2 4 0.61 -0.002755 3.613625 52.053874
438 2 3 -0.72 25.228836 3.032088 26.825144
439 2 3 -0.72 3.037557 25.227794 26.825523
440 2 4 0.61 3.61434 26.030271 52.054185
441 2 3 -0.72 3.032263 0.798497 51.254492
442 2 3 -0.72 22.993053 0.79642 26.825055
443 2 4 0.61 22.415085 26.030614 52.053965
444 2 3 -0.72 22.994004 25.230602 51.254468
445 2 3 -0.72 25.228604 0.796379 29.060765
446 2 4 0.61 0.001899 26.028068 29.639825
447 2 3 -0.72 0.80152 25.228067 29.061053
448 2 5 -0.12 0.857486 5.807968 51.194378
449 2 5 -0.12 0.857723 7.205353 51.194451
450 2 6 0.18 -0.002073 7.903437 52.054026
451 2 5 -0.12 25.169424 7.202891 26.885178
452 2 5 -0.12 25.16919 5.805508 26.885107
453 2 6 0.18 -0.00253 5.110086 52.053898
454 2 7 0.12 1.531458 7.744334 50.521124
455 2 7 0.12 24.495855 7.742026 27.558549
456 2 7 0.12 24.495432 5.266529 27.558414
457 2 7 0.12 1.531034 5.26883 50.520988
458 2 5 -0.12 25.168357 0.856726 31.833935
459 2 5 -0.12 25.168208 0.856922 33.231292
460 2 6 0.18 0.001435 26.028621 33.929417
461 2 5 -0.12 0.860998 25.168526 33.231698
462 2 5 -0.12 0.861143 25.168327 31.834342
463 2 6 0.18 0.001729 26.028233 31.136216
464 2 7 0.12 24.494847 1.530688 33.770193
465 2 7 0.12 1.53425 24.494909 33.770919
466 2 7 0.12 1.534497 24.49455 31.295443
467 2 7 0.12 24.495103 1.530341 31.294715
468 2 5 -0.12 20.219762 0.856193 26.885296
469 2 5 -0.12 18.822398 0.856121 26.885367
470 2 6 0.18 18.125445 26.030425 52.054173
471 2 5 -0.12 18.82338 25.170547 51.194569
472 2 5 -0.12 20.220743 25.170612 51.194505
473 2 6 0.18 20.918679 26.030557 52.054041
474 2 7 0.12 18.283335 1.529726 27.558759
475 2 7 0.12 18.284319 24.496893 50.521225
476 2 7 0.12 20.759804 24.497007 50.521112
477 2 7 0.12 20.758824 1.529851 27.558637
478 2 1 -1.78 13.014712 26.030466 52.054063
479 2 2 1.42 14.147811 1.13046 27.159679
480 2 2 1.42 14.1488 24.896008 50.920293
481 2 2 1.42 11.877561 1.133252 50.919985
482 2 2 1.42 11.88279 24.89356 27.159686
483 2 3 -0.72 13.81439 22.994593 51.254532
484 2 4 0.61 13.014434 22.41569 52.054112
485 2 3 -0.72 12.21684 22.992094 26.825417
486 2 3 -0.72 9.981529 25.228056 26.825331
487 2 4 0.61 9.400421 26.030556 52.054022
488 2 3 -0.72 9.976208 0.798837 51.254379
489 2 3 -0.72 12.212048 3.034716 51.254222
490 2 4 0.61 13.011881 3.613613 52.05394
491 2 3 -0.72 13.813698 3.031873 26.825348
492 2 3 -0.72 13.814501 25.230337 49.019028
493 2 4 0.61 13.014919 26.030164 48.439978
494 2 3 -0.72 12.212122 0.798549 49.018762
495 2 3 -0.72 13.813305 0.796182 29.060928
496 2 4 0.61 13.016732 26.027985 29.639842
497 2 3 -0.72 12.217184 25.228021 29.060933
498 2 3 -0.72 16.049123 0.796064 26.825434
499 2 4 0.61 16.62904 26.030356 52.054236
500 2 3 -0.72 16.050103 25.230346 51.254745
501 2 5 -0.12 12.152498 5.808256 51.19432
502 2 5 -0.12 12.152768 7.205641 51.194375
503 2 6 0.18 13.012691 7.903445 52.054056
504 2 5 -0.12 13.874548 7.202606 26.885313
505 2 5 -0.12 13.874281 5.80522 26.885255
506 2 6 0.18 13.012162 5.110079 52.053944
507 2 7 0.12 11.479309 7.744844 50.520951
508 2 7 0.12 14.548224 7.741514 27.558758
509 2 7 0.12 14.547763 5.266018 27.558656
510 2 7 0.12 11.478837 5.269346 50.520858
511 2 5 -0.12 13.872836 0.856664 31.834127
512 2 5 -0.12 13.872623 0.856893 33.231481
513 2 6 0.18 13.016089 26.028676 33.929404
514 2 5 -0.12 12.156595 25.168664 33.231501
515 2 5 -0.12 12.156809 25.168434 31.834147
516 2 6 0.18 13.016504 26.028227 31.136224
517 2 7 0.12 14.545913 1.530606 33.770537
518 2 7 0.12 11.483144 24.495126 33.770572
519 2 7 0.12 11.483518 24.494722 31.29509
520 2 7 0.12 14.546292 1.530199 31.295058
521 2 5 -0.12 7.202833 0.858607 51.194343
522 2 5 -0.12 5.805469 0.858517 51.194399
523 2 6 0.18 5.110753 26.030317 52.054156
524 2 5 -0.12 5.810943 25.167944 26.885511
525 2 5 -0.12 7.208309 25.168029 26.88545
526 2 6 0.18 7.904007 26.030486 52.054046
527 2 7 0.12 5.266345 1.531988 50.520922
528 2 7 0.12 5.271949 24.494412 27.559032
529 2 7 0.12 7.747433 24.494555 27.558923
530 2 7 0.12 7.741826 1.532144 50.520825
531 2 1 -1.78 -0.001545 13.014674 52.054063
532 2 2 1.42 1.134706 14.146252 27.159679
533 2 2 1.42 1.132543 11.880216 50.920293
534 2 2 1.42 24.893818 14.149044 50.919985
535 2 2 1.42 24.895895 11.877768 27.159686
536 2 3 -0.72 0.798132 9.978801 51.254532
537 2 4 0.61 -0.001823 9.399898 52.054112
538 2 3 -0.72 25.229945 9.976302 26.825417
539 2 3 -0.72 22.994634 12.212264 26.825331
540 2 4 0.61 22.413527 13.014764 52.054022
541 2 3 -0.72 22.992465 13.814629 51.254379
542 2 3 -0.72 25.228305 16.050508 51.254222
543 2 4 0.61 -0.001224 16.629405 52.05394
544 2 3 -0.72 0.800593 16.047665 26.825348
545 2 3 -0.72 0.798244 12.214545 49.019028
546 2 4 0.61 -0.001339 13.014372 48.439978
547 2 3 -0.72 25.22838 13.814341 49.018762
548 2 3 -0.72 0.8002 13.811974 29.060928
549 2 4 0.61 4.74e-04 13.012193 29.639842
550 2 3 -0.72 25.230289 12.212229 29.060933
551 2 3 -0.72 3.036017 13.811856 26.825434
552 2 4 0.61 3.612783 13.014564 52.054236
553 2 3 -0.72 3.033846 12.214554 51.254745
554 2 5 -0.12 25.168756 18.824048 51.19432
555 2 5 -0.12 25.169025 20.221433 51.194375
556 2 6 0.18 -4.14e-04 20.919237 52.054056
557 2 5 -0.12 0.861442 20.218398 26.885313
558 2 5 -0.12 0.861176 18.821012 26.885255
559 2 6 0.18 -9.43e-04 18.125871 52.053944
560 2 7 0.12 24.495566 20.760636 50.520951
561 2 7 0.12 1.535119 20.757306 27.558758
562 2 7 0.12 1.534657 18.28181 27.558656
563 2 7 0.12 24.495095 18.285138 50.520858
564 2 5 -0.12 0.85973 13.872456 31.834127
565 2 5 -0.12 0.859517 13.872685 33.231481
566 2 6 0.18 -1.69e-04 13.012884 33.929404
567 2 5 -0.12 25.1697 12.152872 33.231501
568 2 5 -0.12 25.169914 12.152642 31.834147
569 2 6 0.18 2.47e-04 13.012435 31.136224
570 2 7 0.12 1.532807 14.546398 33.770537
571 2 7 0.12 24.496249 11.479334 33.770572
572 2 7 0.12 24.496623 11.47893 31.29509
573 2 7 0.12 1.533186 14.545991 31.295058
574 2 5 -0.12 20.219091 13.874399 51.194343
575 2 5 -0.12 18.821726 13.874309 51.194399
576 2 6 0.18 18.123859 13.014525 52.054156
577 2 5 -0.12 18.824048 12.152152 26.885511
578 2 5 -0.12 20.221415 12.152237 26.88545
579 2 6 0.18 20.917113 13.014694 52.054046
580 2 7 0.12 18.282602 14.54778 50.520922
581 2 7 0.12 18.285055 11.47862 27.559032
582 2 7 0.12 20.760539 11.478763 27.558923
583 2 7 0.12 20.758084 14.547936 50.520825
584 2 1 -1.78 13.013156 13.014643 52.054088
585 2 2 1.42 11.881264 14.146493 27.159483
586 2 2 1.42 14.149295 11.877603 27.15984
587 2 2 1.42 14.147275 14.148828 50.92009
588 2 2 1.42 11.879046 11.880408 50.920144
589 2 3 -0.72 13.814896 9.976141 26.825517
590 2 4 0.61 13.012916 9.399912 52.05412
591 2 3 -0.72 12.213242 9.978993 51.254396
592 2 3 -0.72 12.213463 12.214711 49.018884
593 2 4 0.61 13.013233 13.014439 48.439957
594 2 3 -0.72 13.812856 13.814338 49.018856
595 2 3 -0.72 13.813269 16.050322 51.254247
596 2 4 0.61 13.013502 16.629417 52.053874
597 2 3 -0.72 12.21573 16.04788 26.825144
598 2 3 -0.72 16.050662 12.212002 26.825523
599 2 4 0.61 16.627446 13.014479 52.054185
600 2 3 -0.72 16.04852 13.814289 51.254492
601 2 3 -0.72 9.979948 13.812212 26.825055
602 2 4 0.61 9.398828 13.014822 52.053965
603 2 3 -0.72 9.977746 12.21481 51.254468
604 2 3 -0.72 12.215499 13.812171 29.060765
605 2 4 0.61 13.015005 13.012276 29.639825
606 2 3 -0.72 13.814625 12.212275 29.061053
607 2 5 -0.12 13.873744 18.82376 51.194378
608 2 5 -0.12 13.873981 20.221145 51.194451
609 2 6 0.18 13.014185 20.919229 52.054026
610 2 5 -0.12 12.156319 20.218683 26.885178
611 2 5 -0.12 12.156084 18.8213 26.885107
612 2 6 0.18 13.013727 18.125878 52.053898
613 2 7 0.12 14.547715 20.760126 50.521124
614 2 7 0.12 11.482749 20.757818 27.558549
615 2 7 0.12 11.482327 18.282321 27.558414
616 2 7 0.12 14.547292 18.284622 50.520988
617 2 5 -0.12 12.155251 13.872518 31.833935
618 2 5 -0.12 12.155103 13.872714 33.231292
619 2 6 0.18 13.01454 13.012829 33.929417
620 2 5 -0.12 13.874104 12.152734 33.231698
621 2 5 -0.12 13.874249 12.152535 31.834342
622 2 6 0.18 13.014834 13.012441 31.136216
623 2 7 0.12 11.481742 14.54648 33.770193
624 2 7 0.12 14.547355 11.479117 33.770919
625 2 7 0.12 14.547602 11.478758 31.295443
626 2 7 0.12 11.481997 14.546133 31.294715
627 2 5 -0.12 7.206657 13.871985 26.885296
628 2 5 -0.12 5.809292 13.871913 26.885367
629 2 6 0.18 5.109188 13.014633 52.054173
630 2 5 -0.12 5.807122 12.154755 51.194569
631 2 5 -0.12 7.204485 12.15482 51.194505
632 2 6 0.18 7.902421 13.014765 52.054041
633 2 7 0.12 5.270229 14.545518 27.558759
634 2 7 0.12 5.268061 11.481101 50.521225
635 2 7 0.12 7.743547 11.481215 50.521112
636 2 7 0.12 7.745719 14.545643 27.558637
637 2 1 -1.78 0.001115 26.029134 39.03989
638 2 2 1.42 1.132045 1.131792 40.173852
639 2 2 1.42 1.135203 24.894677 37.90612
640 2 2 1.42 24.893327 1.13192 37.905812
641 2 2 1.42 24.896387 24.894892 40.173859
642 2 3 -0.72 0.800793 22.993261 38.240359
643 2 4 0.61 8.37e-04 22.414358 39.039939
644 2 3 -0.72 25.230437 22.993426 39.83959
645 2 3 -0.72 22.995126 25.229387 39.839504
646 2 4 0.61 22.416187 26.029224 39.039849
647 2 3 -0.72 22.991974 0.797505 38.240206
648 2 3 -0.72 25.227814 3.033385 38.240049
649 2 4 0.61 -0.001716 3.612281 39.039767
650 2 3 -0.72 0.797932 3.033204 39.839521
651 2 3 -0.72 0.800904 25.229005 36.004855
652 2 4 0.61 0.001322 26.028832 35.425805
653 2 3 -0.72 25.227888 0.797218 36.004589
654 2 3 -0.72 0.797539 0.797514 42.075101
655 2 4 0.61 9.66e-04 26.029317 42.654015
656 2 3 -0.72 25.230781 25.229352 42.075106
657 2 3 -0.72 3.033357 0.797395 39.839607
658 2 4 0.61 3.615443 26.029024 39.040063
659 2 3 -0.72 3.036506 25.229015 38.240572
660 2 5 -0.12 25.168264 5.806924 38.180147
661 2 5 -0.12 25.168534 7.20431 38.180202
662 2 6 0.18 -9.06e-04 7.902114 39.039883
663 2 5 -0.12 0.858782 7.203938 39.899486
664 2 5 -0.12 0.858515 5.806551 39.899428
665 2 6 0.18 -0.001435 5.108748 39.039771
666 2 7 0.12 24.495075 7.743513 37.506778
667 2 7 0.12 1.532458 7.742846 40.572931
668 2 7 0.12 1.531997 5.267349 40.572829
669 2 7 0.12 24.494603 5.268015 37.506685
670 2 5 -0.12 0.85707 0.857995 44.8483
671 2 5 -0.12 0.856857 0.858224 46.245654
672 2 6 0.18 3.23e-04 26.030007 46.943577
673 2 5 -0.12 25.170192 25.169996 46.245674
674 2 5 -0.12 25.170406 25.169766 44.84832
675 2 6 0.18 7.38e-04 26.029558 44.150397
676 2 7 0.12 1.530147 1.531938 46.78471
677 2 7 0.12 24.496741 24.496457 46.784745
678 2 7 0.12 24.497115 24.496053 44.309263
679 2 7 0.12 1.530526 1.53153 44.309231
680 2 5 -0.12 20.218599 0.857276 38.18017
681 2 5 -0.12 18.821235 0.857186 38.180226
682 2 6 0.18 18.126519 26.028985 39.039983
683 2 5 -0.12 18.82454 25.169275 39.899684
684 2 5 -0.12 20.221906 25.16936 39.899623
685 2 6 0.18 20.919773 26.029155 39.039873
686 2 7 0.12 18.282111 1.530657 37.506749
687 2 7 0.12 18.285546 24.495744 40.573205
688 2 7 0.12 20.76103 24.495886 40.573096
689 2 7 0.12 20.757592 1.530812 37.506652
690 2 1 -1.78 13.015816 26.029103 39.039915