LAMMPS (29 Sep 2021)
clear
units real
boundary p p p
atom_style full


neighbor 2.0 bin


# ------------------------ MOF-FF FORCE FIELD ------------------------------


pair_style buck6d/coul/gauss/long     0.9000     0.9000    12.0000
box tilt large
read_data C0_222.data
Reading data file ...
  triclinic box = (0.0000000 0.0000000 0.0000000) to (52.058726 52.063168 52.056692) with tilt (0.0063040000 -0.0043380000 0.0053260000)
  4 by 7 by 4 MPI processor grid
  reading atoms ...
  3392 atoms
  scanning bonds ...
  4 = max bonds/atom
  scanning angles ...
  6 = max angles/atom
  scanning dihedrals ...
  36 = max dihedrals/atom
  scanning impropers ...
  2 = max impropers/atom
  reading bonds ...
  4096 bonds
  reading angles ...
  7296 angles
  reading dihedrals ...
  12288 dihedrals
  reading impropers ...
  1536 impropers
Finding 1-2 1-3 1-4 neighbors ...
  special bond factors lj:    0        0        0       
  special bond factors coul:  0        0        0       
     4 = max # of 1-2 neighbors
    12 = max # of 1-3 neighbors
    24 = max # of 1-4 neighbors
    22 = max # of special neighbors
  special bonds CPU = 0.621 seconds
  read_data CPU = 0.661 seconds
include			parameters.dat.txt
pair_coeff     1     1           10856       3.2967033        308.7755       1.6022517      0.63270113    # buck6d->(o4_zn4@zn4o)|Zn4O_benz/gaussian->(o4_zn4@zn4o)|Zn4O_benz <--> buck6d->(o4_zn4@zn4o)|Zn4O_benz/gaussian->(o4_zn4@zn4o)|Zn4O_benz
pair_coeff     1     2       23480.015        2.919708       1383.9296       8.7719648      0.42456807    # buck6d->(o4_zn4@zn4o)|Zn4O_benz/gaussian->(o4_zn4@zn4o)|Zn4O_benz <--> buck6d->(zn4_o4@zn4o)|Zn4O_benz/gaussian->(zn4_o4@zn4o)|Zn4O_benz
pair_coeff     1     3           10856       3.2967033        308.7755       1.6022517      0.63270113    # buck6d->(o4_zn4@zn4o)|Zn4O_benz/gaussian->(o4_zn4@zn4o)|Zn4O_benz <--> buck6d->(o2_c1zn1@co2)|Zn4O_benz/gaussian->(o2_c1zn1@co2)|Zn4O_benz
pair_coeff     1     4       10576.399       3.1914894       365.45138       2.5231391      0.61998309    # buck6d->(o4_zn4@zn4o)|Zn4O_benz/gaussian->(o4_zn4@zn4o)|Zn4O_benz <--> buck6d->(c3_c1o2@co2)|Zn4O_benz/gaussian->(c3_c1o2@co2)|Zn4O_benz
pair_coeff     1     5       10576.399       3.1746032       377.27092       2.7176691      0.61998697    # buck6d->(o4_zn4@zn4o)|Zn4O_benz/gaussian->(o4_zn4@zn4o)|Zn4O_benz <--> buck6d->(c3_c2h1@ph)|benzene/gaussian->(c3_c2h1@ph)|benzene
pair_coeff     1     6       10576.399       3.1746032       377.27092       2.7176691      0.61998309    # buck6d->(o4_zn4@zn4o)|Zn4O_benz/gaussian->(o4_zn4@zn4o)|Zn4O_benz <--> buck6d->(c3_c2h1@ph)|benzene/gaussian->(c3_c3@ph)|Zn4O_benz
pair_coeff     1     7       6320.6076       3.6144578       103.50278      0.44181916      0.75107727    # buck6d->(o4_zn4@zn4o)|Zn4O_benz/gaussian->(o4_zn4@zn4o)|Zn4O_benz <--> buck6d->(h1_c1@ph)|benzene/gaussian->(h1_c1@ph)|benzene
pair_coeff     2     2           50784       2.6200873       5731.7134        39.94184      0.34105377    # buck6d->(zn4_o4@zn4o)|Zn4O_benz/gaussian->(zn4_o4@zn4o)|Zn4O_benz <--> buck6d->(zn4_o4@zn4o)|Zn4O_benz/gaussian->(zn4_o4@zn4o)|Zn4O_benz
pair_coeff     2     3       23480.015        2.919708       1383.9296       8.7719648      0.42456807    # buck6d->(zn4_o4@zn4o)|Zn4O_benz/gaussian->(zn4_o4@zn4o)|Zn4O_benz <--> buck6d->(o2_c1zn1@co2)|Zn4O_benz/gaussian->(o2_c1zn1@co2)|Zn4O_benz
pair_coeff     2     4       22875.278       2.8368794       1602.4086       13.124311      0.42066066    # buck6d->(zn4_o4@zn4o)|Zn4O_benz/gaussian->(zn4_o4@zn4o)|Zn4O_benz <--> buck6d->(c3_c1o2@co2)|Zn4O_benz/gaussian->(c3_c1o2@co2)|Zn4O_benz
pair_coeff     2     5       22875.278       2.8235294       1648.4078        14.02027      0.42066187    # buck6d->(zn4_o4@zn4o)|Zn4O_benz/gaussian->(zn4_o4@zn4o)|Zn4O_benz <--> buck6d->(c3_c2h1@ph)|benzene/gaussian->(c3_c2h1@ph)|benzene
pair_coeff     2     6       22875.278       2.8235294       1648.4078        14.02027      0.42066066    # buck6d->(zn4_o4@zn4o)|Zn4O_benz/gaussian->(zn4_o4@zn4o)|Zn4O_benz <--> buck6d->(c3_c2h1@ph)|benzene/gaussian->(c3_c3@ph)|Zn4O_benz
pair_coeff     2     7       13670.593       3.1662269       495.43572       2.8200727      0.45538243    # buck6d->(zn4_o4@zn4o)|Zn4O_benz/gaussian->(zn4_o4@zn4o)|Zn4O_benz <--> buck6d->(h1_c1@ph)|benzene/gaussian->(h1_c1@ph)|benzene
pair_coeff     3     3           10856       3.2967033        308.7755       1.6022517      0.63270113    # buck6d->(o2_c1zn1@co2)|Zn4O_benz/gaussian->(o2_c1zn1@co2)|Zn4O_benz <--> buck6d->(o2_c1zn1@co2)|Zn4O_benz/gaussian->(o2_c1zn1@co2)|Zn4O_benz
pair_coeff     3     4       10576.399       3.1914894       365.45138       2.5231391      0.61998309    # buck6d->(o2_c1zn1@co2)|Zn4O_benz/gaussian->(o2_c1zn1@co2)|Zn4O_benz <--> buck6d->(c3_c1o2@co2)|Zn4O_benz/gaussian->(c3_c1o2@co2)|Zn4O_benz
pair_coeff     3     5       10576.399       3.1746032       377.27092       2.7176691      0.61998697    # buck6d->(o2_c1zn1@co2)|Zn4O_benz/gaussian->(o2_c1zn1@co2)|Zn4O_benz <--> buck6d->(c3_c2h1@ph)|benzene/gaussian->(c3_c2h1@ph)|benzene
pair_coeff     3     6       10576.399       3.1746032       377.27092       2.7176691      0.61998309    # buck6d->(o2_c1zn1@co2)|Zn4O_benz/gaussian->(o2_c1zn1@co2)|Zn4O_benz <--> buck6d->(c3_c2h1@ph)|benzene/gaussian->(c3_c3@ph)|Zn4O_benz
pair_coeff     3     7       6320.6076       3.6144578       103.50278      0.44181916      0.75107727    # buck6d->(o2_c1zn1@co2)|Zn4O_benz/gaussian->(o2_c1zn1@co2)|Zn4O_benz <--> buck6d->(h1_c1@ph)|benzene/gaussian->(h1_c1@ph)|benzene
pair_coeff     4     4           10304       3.0927835       429.89352       3.9170177      0.60800239    # buck6d->(c3_c1o2@co2)|Zn4O_benz/gaussian->(c3_c1o2@co2)|Zn4O_benz <--> buck6d->(c3_c1o2@co2)|Zn4O_benz/gaussian->(c3_c1o2@co2)|Zn4O_benz
pair_coeff     4     5           10304       3.0769231       443.36171       4.2093581      0.60800605    # buck6d->(c3_c1o2@co2)|Zn4O_benz/gaussian->(c3_c1o2@co2)|Zn4O_benz <--> buck6d->(c3_c2h1@ph)|benzene/gaussian->(c3_c2h1@ph)|benzene
pair_coeff     4     6           10304       3.0769231       443.36171       4.2093581      0.60800239    # buck6d->(c3_c1o2@co2)|Zn4O_benz/gaussian->(c3_c1o2@co2)|Zn4O_benz <--> buck6d->(c3_c2h1@ph)|benzene/gaussian->(c3_c3@ph)|Zn4O_benz
pair_coeff     4     7       6157.8178       3.4883721        124.7792      0.72632262      0.73005908    # buck6d->(c3_c1o2@co2)|Zn4O_benz/gaussian->(c3_c1o2@co2)|Zn4O_benz <--> buck6d->(h1_c1@ph)|benzene/gaussian->(h1_c1@ph)|benzene
pair_coeff     5     5           10304       3.0612245       457.17971       4.5218516      0.60800971    # buck6d->(c3_c2h1@ph)|benzene/gaussian->(c3_c2h1@ph)|benzene <--> buck6d->(c3_c2h1@ph)|benzene/gaussian->(c3_c2h1@ph)|benzene
pair_coeff     5     6           10304       3.0612245       457.17971       4.5218516      0.60800605    # buck6d->(c3_c2h1@ph)|benzene/gaussian->(c3_c2h1@ph)|benzene <--> buck6d->(c3_c2h1@ph)|benzene/gaussian->(c3_c3@ph)|Zn4O_benz
pair_coeff     5     7       6157.8178       3.4682081       129.19572      0.78772886      0.73006542    # buck6d->(c3_c2h1@ph)|benzene/gaussian->(c3_c2h1@ph)|benzene <--> buck6d->(h1_c1@ph)|benzene/gaussian->(h1_c1@ph)|benzene
pair_coeff     6     6           10304       3.0612245       457.17971       4.5218516      0.60800239    # buck6d->(c3_c2h1@ph)|benzene/gaussian->(c3_c3@ph)|Zn4O_benz <--> buck6d->(c3_c2h1@ph)|benzene/gaussian->(c3_c3@ph)|Zn4O_benz
pair_coeff     6     7       6157.8178       3.4682081       129.19572      0.78772886      0.73005908    # buck6d->(c3_c2h1@ph)|benzene/gaussian->(c3_c3@ph)|Zn4O_benz <--> buck6d->(h1_c1@ph)|benzene/gaussian->(h1_c1@ph)|benzene
pair_coeff     7     7            3680               4          32.805      0.10690769       0.9771554    # buck6d->(h1_c1@ph)|benzene/gaussian->(h1_c1@ph)|benzene <--> buck6d->(h1_c1@ph)|benzene/gaussian->(h1_c1@ph)|benzene

bond_style hybrid class2 morse harmonic

bond_coeff     3 class2     1.275000   620.986080 -1583.514504  2355.477825    # mm3->(c3_c1o2@co2,o2_c1zn1@co2)|Zn4O_benz
bond_coeff     4 class2     1.488000   355.167780  -905.677839  1347.195786    # mm3->(c3_c1o2@co2,c3_c3@ph)|Zn4O_benz
bond_coeff     6 class2     1.094000   390.634200  -996.117210  1481.724350    # mm3->(c3_c2h1@ph,h1_c1@ph)|benzene
bond_coeff     1 morse    50.000000    1.463685     1.987000    # morse->(o4_zn4@zn4o,zn4_o4@zn4o)|Zn4O_benz
bond_coeff     5 class2     1.394000   509.335200 -1298.804760  1931.972080    # mm3->(c3_c2h1@ph,c3_c2h1@ph)|benzene
bond_coeff     2 morse    50.000000    1.547773     1.917000    # morse->(o2_c1zn1@co2,zn4_o4@zn4o)|Zn4O_benz

angle_style hybrid class2/p6 cosine/buck6d

angle_coeff     4 class2/p6      135.606000     6.762360    -5.424366     1.243173    -0.890357     1.603288    # mm3->(c3_c1o2@co2,o2_c1zn1@co2,zn4_o4@zn4o)|Zn4O_benz
angle_coeff     4 class2/p6 bb 0.0 1.0 1.0
angle_coeff     4 class2/p6 ba 0.0 0.0 1.0 1.0
angle_coeff     5 class2/p6      123.006000   111.866700   -89.732857    20.565256   -14.728780    26.522474    # mm3->(o2_c1zn1@co2,c3_c1o2@co2,o2_c1zn1@co2)|Zn4O_benz
angle_coeff     5 class2/p6 bb 0.0 1.0 1.0
angle_coeff     5 class2/p6 ba 0.0 0.0 1.0 1.0
angle_coeff     3 class2/p6      123.103000     5.755200    -4.616481     1.058020    -0.757751     1.364500    # mm3->(o2_c1zn1@co2,zn4_o4@zn4o,o2_c1zn1@co2)|Zn4O_benz
angle_coeff     3 class2/p6 bb 0.0 1.0 1.0
angle_coeff     3 class2/p6 ba 0.0 0.0 1.0 1.0
angle_coeff     9 class2/p6      117.296000    57.983640   -46.511050    10.659547    -7.634339    13.747340    # mm3->(c3_c1o2@co2,c3_c3@ph,c3_c2h1@ph)|Zn4O_benz
angle_coeff     9 class2/p6 bb 0.0 1.0 1.0
angle_coeff     9 class2/p6 ba 0.0 0.0 1.0 1.0
angle_coeff     2 class2/p6      113.584000     0.000000    -0.000000     0.000000    -0.000000     0.000000    # mm3->(o2_c1zn1@co2,zn4_o4@zn4o,o4_zn4@zn4o)|Zn4O_benz
angle_coeff     2 class2/p6 bb     0.000000     1.917000     1.987000
angle_coeff     2 class2/p6 ba     0.000000     0.000000     1.917000     1.987000
angle_coeff     8 class2/p6      120.350000    36.185820   -29.026127     6.652298    -4.764358     8.579296    # mm3->(c3_c2h1@ph,c3_c2h1@ph,h1_c1@ph)|benzene
angle_coeff     8 class2/p6 bb    93.378120     1.394000     1.094000
angle_coeff     8 class2/p6 ba   -25.179000    53.523360     1.394000     1.094000
angle_coeff     1 class2/p6      103.992000    50.214120   -40.278800     9.231221    -6.611375    11.905265    # mm3->(zn4_o4@zn4o,o4_zn4@zn4o,zn4_o4@zn4o)|Zn4O_benz
angle_coeff     1 class2/p6 bb     7.625640     1.987000     1.987000
angle_coeff     1 class2/p6 ba    18.416640    18.416640     1.987000     1.987000
angle_coeff     7 class2/p6      127.050000    53.307540   -42.760159     9.799907    -7.018666    12.638684    # mm3->(c3_c2h1@ph,c3_c2h1@ph,c3_c2h1@ph)|benzene
angle_coeff     7 class2/p6 bb    71.796120     1.394000     1.394000
angle_coeff     7 class2/p6 ba     6.762360     6.762360     1.394000     1.394000
angle_coeff     6 class2/p6      116.368000    77.191620   -61.918557    14.190688   -10.163332    18.301360    # mm3->(c3_c3@ph,c3_c1o2@co2,o2_c1zn1@co2)|Zn4O_benz
angle_coeff     6 class2/p6 bb 0.0 1.0 1.0
angle_coeff     6 class2/p6 ba 0.0 0.0 1.0 1.0

dihedral_style opls

dihedral_coeff     5     0.000000     3.012000     0.000000     0.000000    # cos3->(c3_c3@ph,c3_c1o2@co2,o2_c1zn1@co2,zn4_o4@zn4o)|Zn4O_benz
dihedral_coeff     4     0.000000     0.076000     0.000000     0.000000    # cos3->(o2_c1zn1@co2,c3_c1o2@co2,o2_c1zn1@co2,zn4_o4@zn4o)|Zn4O_benz
dihedral_coeff     3     0.000000     0.000000     0.000000     0.000000    # cos3->(c3_c1o2@co2,o2_c1zn1@co2,zn4_o4@zn4o,o2_c1zn1@co2)|Zn4O_benz
dihedral_coeff    10     0.000000     0.000000     0.000000     0.000000    # cos3->(c3_c2h1@ph,c3_c2h1@ph,c3_c3@ph,c3_c1o2@co2)|Zn4O_benz
dihedral_coeff     8     0.000000     6.316000     0.000000     0.000000    # cos3->(c3_c2h1@ph,c3_c2h1@ph,c3_c2h1@ph,h1_c1@ph)|benzene
dihedral_coeff     2     0.000000     0.000000     0.000000     0.000000    # cos3->(c3_c1o2@co2,o2_c1zn1@co2,zn4_o4@zn4o,o4_zn4@zn4o)|Zn4O_benz
dihedral_coeff     7     0.000000     4.379000     0.000000     0.000000    # cos3->(c3_c2h1@ph,c3_c2h1@ph,c3_c2h1@ph,c3_c2h1@ph)|benzene
dihedral_coeff    11     0.000000     0.000000     0.000000     0.000000    # cos3->(h1_c1@ph,c3_c2h1@ph,c3_c3@ph,c3_c1o2@co2)|Zn4O_benz
dihedral_coeff     9     0.000000     5.972000     0.000000     0.000000    # cos3->(h1_c1@ph,c3_c2h1@ph,c3_c2h1@ph,h1_c1@ph)|benzene
dihedral_coeff     6     0.000000     1.902000     0.000000     0.000000    # cos3->(o2_c1zn1@co2,c3_c1o2@co2,c3_c3@ph,c3_c2h1@ph)|Zn4O_benz
dihedral_coeff     1     0.000000     0.000000     0.000000     0.000000    # cos3->(zn4_o4@zn4o,o4_zn4@zn4o,zn4_o4@zn4o,o2_c1zn1@co2)|Zn4O_benz

improper_style inversion/harmonic

improper_coeff     2     4.100580     0.000000    # harm->(c3_c2h1@ph,c3_c2h1@ph,c3_c2h1@ph,h1_c1@ph)|benzene
improper_coeff     3   189.921600     0.000000    # harm->(c3_c3@ph,c3_c1o2@co2,c3_c2h1@ph,c3_c2h1@ph)|Zn4O_benz
improper_coeff     1    40.574160     0.000000    # harm->(c3_c1o2@co2,c3_c3@ph,o2_c1zn1@co2,o2_c1zn1@co2)|Zn4O_benz

special_bonds lj 0.00 0.00 1.00 coul 1.00 1.00 1.00
Finding 1-2 1-3 1-4 neighbors ...
  special bond factors lj:    0        0        1       
  special bond factors coul:  1        1        1       
     4 = max # of 1-2 neighbors
    12 = max # of 1-3 neighbors
    22 = max # of special neighbors
  special bonds CPU = 0.001 seconds




change_box all  triclinic
Changing box ...
  triclinic box = (0.0000000 0.0000000 0.0000000) to (52.058726 52.063168 52.056692) with tilt (0.0063040000 -0.0043380000 0.0053260000)
kspace_style pppm      1e-06
# ------------------------ MOF-FF FORCE FIELD END --------------------------

shell mkdir     data_nc
shell cd        data_nc
##---------------------------------------------------------------------------------------
min_style		cg
minimize		0.0 1.0e-8 1000 10000
WARNING: Using 'neigh_modify every 1 delay 0 check yes' setting during minimization (../min.cpp:188)
PPPM initialization ...
  using 12-bit tables for long-range coulomb (../kspace.cpp:340)
  G vector (1/distance) = 0.27515811
  grid = 54 54 54
  stencil order = 5
  estimated absolute RMS force accuracy = 0.00029521763
  estimated relative force accuracy = 8.8903912e-07
  using double precision FFTW3
  3d grid and FFT values/proc = 6615 1568
Neighbor list info ...
  update every 1 steps, delay 0 steps, check yes
  max neighbors/atom: 2000, page size: 100000
  master list distance cutoff = 14
  ghost atom cutoff = 14
  binsize = 7, bins = 8 8 8
  1 neighbor lists, perpetual/occasional/extra = 1 0 0
  (1) pair buck6d/coul/gauss/long, perpetual
      attributes: half, newton on
      pair build: half/bin/newton/tri
      stencil: half/bin/3d/tri
      bin: standard
WARNING: Inconsistent image flags (../domain.cpp:814)
Per MPI rank memory allocation (min/avg/max) = 23.14 | 23.32 | 23.83 Mbytes
Step Temp E_pair E_mol TotEng Press 
       0            0   -115667.52    1998.9622   -113668.56   -442.41058 
     513            0   -115738.71    2057.5547   -113681.16   -306.68589 
Loop time of 5.51021 on 112 procs for 513 steps with 3392 atoms

90.2% CPU use with 112 MPI tasks x no OpenMP threads

Minimization stats:
  Stopping criterion = linesearch alpha is zero
  Energy initial, next-to-last, final = 
     -113668.560159355  -113681.156131346  -113681.156131346
  Force two-norm initial, final = 97.588521 0.0058735825
  Force max component initial, final = 3.5120644 0.00037493272
  Final line search alpha, max atom move = 0.00024414062 9.1536309e-08
  Iterations, force evaluations = 513 1052

MPI task timing breakdown:
Section |  min time  |  avg time  |  max time  |%varavg| %total
---------------------------------------------------------------
Pair    | 0.052697   | 0.70945    | 1.2816     |  50.2 | 12.88
Bond    | 0.0070055  | 0.11256    | 0.20079    |  20.2 |  2.04
Kspace  | 3.8894     | 4.5496     | 5.3103     |  22.9 | 82.57
Neigh   | 0          | 0          | 0          |   0.0 |  0.00
Comm    | 0.077493   | 0.095627   | 0.10832    |   2.3 |  1.74
Output  | 0          | 0          | 0          |   0.0 |  0.00
Modify  | 0          | 0          | 0          |   0.0 |  0.00
Other   |            | 0.04298    |            |       |  0.78

Nlocal:        30.2857 ave          55 max           2 min
Histogram: 24 8 0 16 0 0 16 16 24 8
Nghost:        1706.86 ave        1826 max        1529 min
Histogram: 16 16 0 0 0 0 0 48 16 16
Neighs:        3857.71 ave        6905 max         271 min
Histogram: 24 8 0 0 16 0 8 24 24 8

Total # of neighbors = 432064
Ave neighs/atom = 127.37736
Ave special neighs/atom = 6.7169811
Neighbor list builds = 0
Dangerous builds = 0

velocity     	all create 300 3204550 dist gaussian mom yes rot no

#-----------------------------------------------------------------------------

variable		R		equal 0.00198722
variable		sysvol		equal vol
variable		sysmass		equal mass(all)/6.0221367e+23
variable		sysdensity	equal v_sysmass/v_sysvol/1.0e-24
variable		coulomb		equal ecoul+elong
variable		etotal		equal etotal
variable		pe		equal pe
variable		ke		equal ke
variable		evdwl		equal evdwl
variable		epair		equal epair
variable		ebond		equal ebond
variable		eangle		equal eangle
variable		edihed		equal edihed
variable		eimp		equal eimp
variable		lx		equal lx
variable		ly		equal ly
variable		lz		equal lz
variable		Nthermo		equal 0
variable		cella		equal lx
variable		cellb		equal sqrt(ly*ly+xy*xy)
variable		cellc		equal sqrt(lz*lz+xz*xz+yz*yz)
variable		cellalpha	equal acos((xy*xz+ly*yz)/(v_cellb*v_cellc))
variable		cellbeta	equal acos(xz/v_cellc)
variable		cellgamma	equal acos(xy/v_cellb)
variable		p		equal press
variable		pxx		equal pxx
variable		pyy		equal pyy
variable		pzz		equal pzz
variable		pyz		equal pyz
variable		pxz		equal pxz
variable		pxy		equal pxy
variable		sxx		equal -pxx
variable		syy		equal -pyy
variable		szz		equal -pzz
variable		syz		equal -pyz
variable		sxz		equal -pxz
variable		sxy		equal -pxy
variable		fmax		equal fmax
variable	        fnorm		equal fnorm
variable		time equal step*dt+0.000001
variable		surfacetension equal 0.5*v_lz*(0.5*(v_sxx+v_syy)-v_szz)

#-------------------------------------------------------------------------------
timestep	    1
thermo_style custom step evdwl ebond eangle edihed eimp pe ke etotal temp press vol v_coulomb enthalpy spcpu
thermo 1000

variable        TEMP        equal 300

fix             1 all npt temp  ${TEMP} ${TEMP} 100  tri  0 0 1000
fix             1 all npt temp  300 ${TEMP} 100  tri  0 0 1000
fix             1 all npt temp  300 300 100  tri  0 0 1000
run		100000
PPPM initialization ...
  using 12-bit tables for long-range coulomb (../kspace.cpp:340)
  G vector (1/distance) = 0.27515811
  grid = 54 54 54
  stencil order = 5
  estimated absolute RMS force accuracy = 0.00029521763
  estimated relative force accuracy = 8.8903912e-07
  using double precision FFTW3
  3d grid and FFT values/proc = 6615 1568
WARNING: Inconsistent image flags (../domain.cpp:814)
Per MPI rank memory allocation (min/avg/max) = 22.03 | 22.21 | 22.72 Mbytes
Step E_vdwl E_bond E_angle E_dihed E_impro PotEng KinEng TotEng Temp Press Volume v_coulomb Enthalpy S/CPU 
     513    500.42076    268.56106    1788.9936 3.3835134e-05 3.0414069e-07   -113681.16    3032.3781   -110648.78          300    675.77553    141091.45   -116239.13   -109258.25            0 
    1000    544.30312    1317.5456    2438.8401    426.83162    306.77077   -111157.39    2527.5102   -108629.88    250.05228   -676.51891    139430.94   -116191.68   -110005.55    164.76632 
    2000    568.05743    1573.8235    2648.5897    537.94333    283.27786   -110511.13    3042.0997   -107469.03    300.96178    546.02539    138544.07   -116122.82   -106365.77    164.46662 
    3000     569.6899     1530.666    2650.7542    505.21974    274.07932   -110549.02    2914.6819   -107634.34    288.35606    191.73219     139044.4   -116079.43   -107245.54    164.60358 
    4000    557.46267    1483.0275    2656.8889    514.67175    277.69917    -110570.8    3041.0753   -107529.72    300.86044    504.23051    138633.64   -116060.55   -106510.25    163.35535 
    5000     548.2072    1517.4858    2620.3741    509.64377    267.33705   -110600.37    2999.8906   -107600.48    296.78594    141.57617     139024.6   -116063.42   -107313.43    163.85229 
    6000    566.58695    1484.4143    2644.3982    491.30988    263.75137   -110642.94     3086.226   -107556.71     305.3273    373.30711    139098.82    -116093.4   -106799.42    163.81419 
    7000    564.85933     1557.132    2663.5035    529.75698    276.63269   -110492.62    2956.9172   -107535.71    292.53449    546.73049    138608.64   -116084.51   -106430.51    164.45783 
    8000    534.83399    1543.2205    2644.2812    466.95229    270.18057    -110624.2    3008.6254   -107615.58    297.65009   -354.93847    139469.29   -116083.67   -108337.53    164.17191 
    9000    553.02225    1557.7872     2640.729    481.27673    257.88908   -110593.68    2955.1104   -107638.57    292.35573    28.876624    139466.03   -116084.39   -107579.84     164.2619 
   10000    567.65679    1530.9409    2658.1502    498.78306    267.27564   -110540.79    3044.5528   -107496.24    301.20448    185.29711    138665.72    -116063.6   -107121.51     164.7653 
   11000    563.71879    1492.8062    2658.1374    494.01732    278.19408   -110630.64    2968.0726   -107662.57    293.63812    68.297607    139211.54   -116117.51    -107523.9    164.25038 
   12000    559.95719    1559.1784    2631.9887    494.67724    252.67161   -110603.53    3080.6305    -107522.9    304.77372    34.199679    139023.85      -116102   -107453.55    163.61288 
   13000    538.56953    1529.6763    2647.9347    498.17242    277.93322   -110568.48    2965.3526   -107603.13    293.36902   -222.86018    139087.46   -116060.77   -108055.19    163.53388 
   14000    556.95595    1553.2648    2593.3998    478.17215    277.16755   -110628.78     2939.869   -107688.91    290.84787    369.72177    139388.35   -116087.74   -106937.33      165.046 
   15000    552.93692    1554.6907    2640.0338    496.00436      282.198   -110552.98    3000.5049   -107552.47    296.84671    176.26876    139120.53   -116078.84   -107194.84    164.49744 
   16000    568.35268    1559.5245      2658.23    472.31878    292.90454   -110537.25    3006.9638   -107530.29    297.48571   -84.118699    138944.58   -116088.58   -107700.74     164.7939 
   17000    553.37079    1562.7995    2599.3295    456.45765    264.52005   -110667.08    3003.3474   -107663.73    297.12793    362.27391    139558.33   -116103.56   -106926.39    165.11183 
   18000    557.52289    1554.1413    2645.9803    494.75862     268.4265   -110574.89    3023.2772   -107551.61    299.09963   -528.14865    139005.99   -116095.72   -108622.31    164.87745 
   19000    558.78291    1599.5987    2636.7868    491.05372    267.97565   -110585.91    3057.7551   -107528.16     302.5106   -95.452454    138999.99   -116140.11   -107721.65    164.76031 
   20000    560.11109     1556.198    2658.7624     494.3101    264.20634   -110563.93    3033.2879   -107530.64    300.09001    684.97701     138967.9   -116097.51   -106142.39    163.06999 
   21000    539.65679    1579.4972    2650.3205    504.64501     254.7844   -110535.27    2991.0735   -107544.19    295.91364   -236.89782     139068.2   -116064.17   -108024.66     164.1344 
   22000    523.81128    1582.1984    2626.2808     512.6597    261.53183   -110573.63    3050.3552   -107523.28    301.77852   -760.15752    139546.51   -116080.11   -109070.31    163.94727 
   23000    559.07753    1557.4171    2664.9415    466.16613    277.20824   -110609.43    2971.3124   -107638.12    293.95864    132.19521    139452.55   -116134.25   -107369.27    164.37268 
   24000    534.74863    1589.1306    2691.6769     509.2645    279.09695   -110473.36     2995.967   -107477.39    296.39777   -516.06467    139326.35   -116077.28      -108526    164.16561 
   25000    554.58746    1541.4763    2599.0071    505.55696    262.61706   -110628.75    2999.0769   -107629.67    296.70544   -284.00786    139398.33   -116091.99   -108207.05    163.27674 
   26000    553.12458    1556.4779     2663.994    463.61421    271.11826   -110646.18    3019.1204   -107627.06    298.68839   -1.6343386    139338.71   -116154.51   -107630.38    164.70381 
   27000    555.18254    1563.7973    2612.5549    490.46801    269.03309   -110560.32    3052.7115   -107507.61    302.01163    511.75413    139248.07   -116051.36   -106468.35    163.55225 
   28000    547.49503    1508.0693    2623.7698    472.77112     278.7803   -110639.02     3057.874   -107581.14    302.52237   -524.97436    139669.96    -116069.9   -108650.49    164.40522 
   29000    555.49051    1626.8593    2666.2159    494.25154    268.44418   -110522.44    3043.9732   -107478.47    301.14714   -377.27991    139621.62   -116133.71    -108246.7    163.33723 
   30000    541.76055    1573.6518    2623.6816    480.09655     268.5068   -110619.67    3073.7578   -107545.91    304.09379    180.74476    139388.87   -116107.37   -107178.49    163.30618 
   31000    549.35823    1498.4447     2632.851    510.67779    279.67835   -110612.77    3017.1764   -107595.59    298.49606   -64.743418    139448.02   -116083.78   -107727.26    164.16642 
   32000    549.12917    1606.4076    2651.4869    507.05868    276.34746   -110511.83    3056.1178   -107455.72    302.34862   -424.79328    138898.34   -116102.26   -108316.22    164.65955 
   33000    576.65685    1574.9479    2584.4839    494.27442    250.60701   -110635.59     3008.636   -107626.95    297.65115    355.17021    139126.21   -116116.56   -106906.31    163.50395 
   34000     537.4943    1551.7453    2687.8674    485.85228     259.1407   -110550.29      3012.06   -107538.23    297.98989    214.05061    139408.22   -116072.39   -107103.04    163.67038 
   35000    547.95238    1519.1743    2682.7286    471.54967     264.2964   -110591.18    3006.5617   -107584.62    297.44593   -62.537128    139041.92   -116076.88   -107711.43    163.63436 
   36000    551.36158    1527.8855    2637.2023    470.93936     265.4641   -110630.69    3065.9406   -107564.75    303.32042    85.978341    139347.94   -116083.55   -107390.02    163.86614 
   37000     554.7432    1596.6519    2693.1042    490.56561    258.10652   -110517.32    2976.2549   -107541.06    294.44761    89.139105    139076.28   -116110.49   -107360.26    164.42198 
   38000    552.55425    1582.2531    2587.4879    497.93857    282.04411   -110592.11    3033.8094    -107558.3    300.14161    92.691637    139080.12   -116094.38   -107370.29    164.76446 
   39000    554.47069    1547.4682    2651.3401    463.87535    239.77564   -110637.79    3039.7191   -107598.07    300.72627     134.9323    139067.99   -116094.72    -107324.4    164.13488 
   40000     568.6116    1589.1478     2652.417    502.60423    272.49258   -110541.78    3083.8003   -107457.98    305.08732    754.56696    138594.06   -116127.05   -105932.81    163.17773 
   41000    565.59272    1512.7625    2606.1598    509.90404    266.11595   -110615.95    3033.5553    -107582.4    300.11647     172.3869    138947.36   -116076.49   -107233.07    164.19339 
   42000    564.99863    1529.6573    2605.5202    494.71861     261.9385   -110626.47    3013.0273   -107613.44    298.08559    588.35972    138788.42    -116083.3   -106422.55    162.95688 
   43000    563.87674    1503.2234    2648.7286    518.62737    292.53154   -110558.65    3062.4978   -107496.16    302.97981    318.19597    138559.96   -116085.64   -106853.16    163.23061 
   44000    550.80846    1517.2375     2646.673    509.57303    287.58754   -110568.67     3104.713   -107463.96    307.15626    143.00997    139263.36   -116080.55    -107173.5    163.66826 
   45000    573.82641    1540.4797    2663.9561    464.50494    272.90666   -110587.25    2998.5123   -107588.74    296.64958    244.83565     139035.2   -116102.92   -107092.29     163.7017 
   46000    569.58715    1542.5648    2623.4512    502.65683    285.09689   -110602.43    3036.9534   -107565.48    300.45265    660.85645    138844.45   -116125.79   -106227.31    163.69841 
   47000     552.4881    1536.3529    2677.9678    486.75277    291.43998   -110544.88    3067.0068   -107477.87     303.4259   -172.91901    139183.49   -116089.88   -107828.87    164.03328 
   48000    542.07745    1565.3231    2636.0704    496.42149    267.24303   -110603.16    2945.4299   -107657.73    291.39803   -340.05774    139437.51   -116110.29   -108349.25    164.15237 
   49000    532.24835    1547.4756    2619.3392    469.14929     260.1267   -110631.57    3014.0344   -107617.54    298.18522   -752.32196    139991.71   -116059.91    -109153.5    164.05419 
   50000    537.39001    1541.5324    2667.8407    490.42697    262.40125   -110613.07    3085.9758   -107527.09    305.30255   -493.51366     139608.8   -116112.66   -108531.91    163.41119 
   51000    525.56774    1586.8737    2605.3421    487.24869    268.20898   -110611.07    3022.0823   -107588.98    298.98142   -675.84971    139415.89   -116084.31   -108963.15    163.87811 
   52000    546.36701    1512.8087    2663.2898    485.81107    267.44569   -110610.94     3017.148   -107593.79    298.49326    663.22228    139430.37   -116086.66   -106245.16    164.29855 
   53000    550.61718    1585.3884    2661.1413    484.27603    265.19877   -110542.95    3086.8228   -107456.13    305.38634   -550.12008    139107.82   -116089.57   -108572.18    163.54273 
   54000    563.91192    1569.9466     2617.209    507.05306     270.2236   -110567.93    3030.5327   -107537.39    299.81744    120.39072    139102.57   -116096.27   -107293.16    164.75504 
   55000    564.53215    1518.3685    2606.4246    476.91467    278.08033   -110639.67    3032.0043   -107607.67    299.96302    3.4056899    139205.27   -116083.99   -107600.76    164.08213 
   56000    544.36884    1557.2214    2696.2447    481.18845    274.03894   -110519.74    3066.3407    -107453.4       303.36   -300.10912     139116.1    -116072.8   -108062.28    163.16213 
   57000    533.05995     1532.884    2624.0535    500.83162    263.87788    -110626.9    3100.1641   -107526.73    306.70623   -136.31285    139513.84   -116081.61   -107804.09    162.85884 
   58000     552.7637    1502.2143    2675.8025     492.4056    270.30096   -110584.87    3067.1633   -107517.71    303.44138    232.94038    139099.26   -116078.36   -107045.16    164.10989 
   59000    561.88682    1530.7134     2665.013    516.22769    267.11246   -110575.67    3002.7592   -107572.91    297.06974    346.30299    138723.56   -116116.62   -106872.29    164.30165 
   60000    553.74514    1522.8847    2640.3348    495.14274     258.4061   -110598.93    3020.6373   -107578.29    298.83846    36.279532    138983.72   -116069.44   -107504.75    163.83833 
   61000    546.14983     1557.166    2630.1065    497.92333    293.21733   -110564.75    3066.7684   -107497.98    303.40231   -95.839406    139331.77   -116089.32   -107692.73    164.12567 
   62000    541.97636    1462.3165    2661.7712    521.41816    277.14484    -110594.7    2994.4935   -107600.21      296.252   -335.57205    139066.27   -116059.33    -108280.8    164.92614 
   63000    538.84434    1520.9473    2644.2668     520.9961    280.96044   -110625.21    3065.5156   -107559.69    303.27837   -2.1897897    139340.18   -116131.22   -107564.14     163.0718 
   64000    549.30176    1553.3903    2655.9618    469.65184    271.43788   -110594.88    2905.9956   -107688.88    287.49669   -178.63713    139472.11   -116094.62   -108052.24    163.92003 
   65000    556.97378    1542.1308    2654.5338    484.86723     274.7039   -110582.43    3026.4825   -107555.95    299.41674   -358.70035    139203.17   -116095.64   -108284.16    164.33275 
   66000    555.57946     1575.067    2662.6664    464.84143    279.93844   -110582.77    3049.4804   -107533.29    301.69197    52.809732    139311.23   -116120.87      -107426    163.64711 
   67000    567.56031    1555.7824    2653.9378    511.38089     266.4984   -110554.77    3088.8894   -107465.88    305.59079    223.07053    138978.23   -116109.93   -107013.75    164.65085 
   68000    555.75704    1556.3848    2610.2339    488.93966    274.80204   -110611.67    3061.5791   -107550.09    302.88893    218.36362    139359.38   -116097.79   -107106.28    163.93969 
   69000    544.83493    1524.6145    2636.8644    478.28271    251.35216    -110659.9    3046.0832   -107613.82    301.35588   -620.64228       139602   -116095.85   -108877.42    164.15547 
   70000    552.58909    1538.9589     2646.443    487.02954    267.93705   -110596.98    2986.9578   -107610.02    295.50647    19.357937    139214.31   -116089.94   -107570.72    163.42545 
   71000    548.12234    1552.9818    2653.0412    474.67135    290.39366   -110589.31    3025.2451   -107564.07    299.29432     99.80379    139587.21   -116108.53    -107360.9    164.41527 
   72000    536.09038    1565.3568    2683.9352    498.09584    281.58252   -110528.87    3059.2212   -107469.64    302.65566   -711.57154       139388   -116093.93   -108916.15    162.80461 
   73000    554.84825    1499.2903    2614.6511    494.78426    282.89855   -110665.73    3044.7497   -107620.99    301.22395    409.58558    139321.59   -116112.21   -106788.76    163.80575 
   74000    548.14925    1523.4678    2676.8735    503.44332    254.98049   -110547.59     3073.612   -107473.98    304.07936   -249.38787    138996.65    -116054.5   -107979.52    164.40151 
   75000    565.59333    1520.9828    2658.7294    505.05503    255.91294   -110605.39    2979.0032   -107626.38    294.71951     491.8718    138915.96   -116111.66   -106629.88    164.37814 
   76000    555.00598    1562.3503      2645.26     499.1031    285.36629   -110573.55    3016.5046   -107557.05     298.4296   -609.51856    139242.64   -116120.64   -108794.81    164.41984 
   77000    541.75333    1532.4719    2650.2665    496.94799    262.27286   -110576.77    2979.4983   -107597.27    294.76848    224.94372    139292.48   -116060.48   -107140.31    163.85849 
   78000    562.98126    1583.8673    2657.3247    504.34544    307.22762   -110513.45    2983.5166   -107529.93    295.16602    6.4145956    139151.49   -116129.19   -107516.91    164.14167 
   79000    546.58313    1517.6157    2610.4601     485.2982    274.22491   -110681.16    3018.7033   -107662.45    298.64712    83.989985    139370.83   -116115.34   -107491.74    163.07409 
   80000    557.44694    1524.3252    2689.0488      502.255    290.91141   -110547.73    3048.4392   -107499.29    301.58896    217.64419    139078.43   -116111.72   -107057.84    163.88112 
   81000     557.4525     1558.423    2667.1121    506.34381    279.37305   -110517.56    3067.5125   -107450.05    303.47593   -92.596952    139173.46   -116086.27   -107637.99    163.93663 
   82000    571.48741    1531.1626    2646.1181     476.3044     279.4534   -110601.06    3020.5846   -107580.47    298.83325    244.96547    139174.45   -116105.58   -107083.26    163.09074 
   83000    566.02731    1542.9891    2643.7503    505.44999    284.01752    -110577.9    3084.7253   -107493.17    305.17883    227.03474    139351.46   -116120.13   -107031.77    163.87208 
   84000    561.70088    1513.4841    2639.5414    472.60591    274.76894   -110657.99    3073.8303   -107584.16    304.10096   -366.48433     139202.4   -116120.09   -108328.17    164.35631 
   85000    548.19896    1560.6458    2638.3681     524.8963    290.52308   -110516.39    3077.9548   -107438.43    304.50901    603.08729    139288.46   -116079.02   -106213.34    164.43934 
   86000    538.60428    1551.6572    2664.1817    512.41436    293.57578   -110505.29    3001.0035   -107504.28    296.89604   -106.27689    138923.37   -116065.72   -107719.61    163.48337 
   87000    556.53284    1517.0738    2654.1522    489.40328    258.33148   -110611.07    3022.7179   -107588.35     299.0443    310.03576    139156.57   -116086.56   -106959.14    164.27915 
   88000    538.46225    1524.1206    2656.0435      472.253    274.17147    -110614.8    3028.0116   -107586.79    299.56801    84.729987    139434.13   -116079.86   -107414.49    164.23293 
   89000    551.53341    1617.6595    2618.7289    473.33581    278.61425   -110592.63    3097.2939   -107495.34    306.42227   -317.55875    139399.86    -116132.5   -108140.93    164.24928 
   90000    543.77475    1535.1405    2661.5987    479.44291    258.05273   -110601.38    3016.0602   -107585.32    298.38563   -6.0463421    139604.01   -116079.39   -107597.63    163.50834 
   91000    549.28539    1515.8634    2666.1855    489.33669    257.57185   -110631.71    2982.7143   -107648.99    295.08665    17.083145    139414.64   -116109.95   -107614.26     164.5851 
   92000    562.38579     1627.543    2639.6993    473.06339    271.47895   -110550.56    3060.4003   -107490.16     302.7723    244.80473    139267.59   -116124.73   -106992.95    164.30711 
   93000     530.9645     1554.822    2618.1338    465.64577    249.47375   -110647.73    3012.6747   -107635.05     298.0507   -705.06804    139513.13   -116066.77   -109069.62    165.03575 
   94000    551.48405    1546.8776    2650.9125    498.77119    266.08622   -110562.87    3040.2293   -107522.64    300.77674      355.891    139159.99      -116077   -106800.36    162.80631 
   95000     551.7093    1517.6724    2608.6008    510.09287    269.29973   -110628.56    3048.7721   -107579.79    301.62189    384.05076    139097.66   -116085.94   -106800.71    164.31102 
   96000    559.63849    1554.3357    2602.9537    475.27703    259.67454   -110637.14    3060.6268   -107576.51    302.79471    62.746063    139085.76   -116089.02   -107449.24    163.90541 
   97000    545.04864    1536.5575    2666.4793    500.23062    277.84648   -110541.45    3014.4215   -107527.03    298.22352    7.5691684    139069.86   -116067.62   -107511.68    163.95832 
   98000    545.62867    1575.8756    2716.4637    498.77007    280.10857   -110483.12    2989.6806   -107493.44    295.77585   -54.915289    139591.73   -116099.97   -107605.24    164.80949 
   99000    561.59711    1553.7532    2668.0114    482.72333    275.92543   -110563.71    3065.2655   -107498.45    303.25363    549.36176    139030.69   -116105.73   -106384.55    163.77358 
  100000    567.97304    1521.9948    2696.4053    486.21713    274.19558   -110528.36    3072.4413   -107455.92    303.96355    468.19915    138933.64   -116075.15   -106507.26    164.37585 
  100513    553.30564     1491.768    2660.4201    502.71393    254.71375   -110600.86     3068.683   -107532.17    303.59173   -47.957249    139442.05   -116063.78    -107629.7    162.49512 
Loop time of 609.736 on 112 procs for 100000 steps with 3392 atoms

Performance: 14.170 ns/day, 1.694 hours/ns, 164.005 timesteps/s
91.5% CPU use with 112 MPI tasks x no OpenMP threads

MPI task timing breakdown:
Section |  min time  |  avg time  |  max time  |%varavg| %total
---------------------------------------------------------------
Pair    | 9.8505     | 68.997     | 115.1      | 457.4 | 11.32
Bond    | 1.4852     | 11.143     | 19.203     | 190.0 |  1.83
Kspace  | 386.39     | 438.99     | 507.81     | 210.8 | 72.00
Neigh   | 1.1912     | 1.2025     | 1.2238     |   1.1 |  0.20
Comm    | 7.9457     | 9.9943     | 14.988     |  56.9 |  1.64
Output  | 0.0090663  | 0.0091998  | 0.010279   |   0.1 |  0.00
Modify  | 50.522     | 73.443     | 80.134     |  91.9 | 12.05
Other   |            | 5.963      |            |       |  0.98

Nlocal:        30.2857 ave          56 max           0 min
Histogram: 15 15 0 7 10 2 11 22 22 8
Nghost:        1689.46 ave        1797 max        1532 min
Histogram: 14 10 8 0 0 1 14 36 21 8
Neighs:        3878.91 ave        7193 max           0 min
Histogram: 15 15 0 5 12 5 9 22 19 10

Total # of neighbors = 434438
Ave neighs/atom = 128.07724
Ave special neighs/atom = 6.7169811
Neighbor list builds = 2235
Dangerous builds = 0
write_data      data_1_relax.*
System init for write_data ...
PPPM initialization ...
  using 12-bit tables for long-range coulomb (../kspace.cpp:340)
  G vector (1/distance) = 0.27552853
  grid = 54 54 54
  stencil order = 5
  estimated absolute RMS force accuracy = 0.000288297
  estimated relative force accuracy = 8.6819787e-07
  using double precision FFTW3
  3d grid and FFT values/proc = 6615 1568
WARNING: Not all mixed pair coeffs generated from mixing. Use write_data with 'pair ij' option to store all pair coeffs. (../write_data.cpp:312)
unfix 1

fix             1 all npt temp  ${TEMP} ${TEMP} 100  tri  0 2000 1000
fix             1 all npt temp  300 ${TEMP} 100  tri  0 2000 1000
fix             1 all npt temp  300 300 100  tri  0 2000 1000
run		200000
PPPM initialization ...
  using 12-bit tables for long-range coulomb (../kspace.cpp:340)
  G vector (1/distance) = 0.27552853
  grid = 54 54 54
  stencil order = 5
  estimated absolute RMS force accuracy = 0.000288297
  estimated relative force accuracy = 8.6819787e-07
  using double precision FFTW3
  3d grid and FFT values/proc = 6615 1568
WARNING: Inconsistent image flags (../domain.cpp:814)
Per MPI rank memory allocation (min/avg/max) = 22.03 | 22.41 | 22.72 Mbytes
Step E_vdwl E_bond E_angle E_dihed E_impro PotEng KinEng TotEng Temp Press Volume v_coulomb Enthalpy S/CPU 
  100513    553.30564     1491.768    2660.4201    502.71393    254.71375   -110600.86     3068.683   -107532.18    303.59173    -47.95123    139442.05   -116063.78   -107629.69            0 
  101000    563.88032    1513.9658    2640.7347    503.22237     275.9346   -110604.84    3035.2026   -107569.64    300.27944    602.06838    138827.26   -116102.58   -106350.66    163.56432 
  102000    568.64244    1495.3556    2630.6196    509.53778    264.25167    -110632.6    3071.5383   -107561.06    303.87421    418.24095    138681.32      -116101   -106715.15    163.54867 
  103000    563.09687    1552.1153    2660.1406    502.69045     294.4625   -110504.66    3050.3391   -107454.32    301.77693    51.138669    139192.08   -116077.17   -107350.51    164.71075 
  104000    554.02835    1541.4552    2656.9606    470.05065    270.93985   -110624.29    3018.1512   -107606.14    298.59251   -60.726812    139486.15   -116117.72   -107729.67    164.59174 
  105000    554.31224    1498.7631     2664.195    486.70361    287.21622   -110602.58    2960.1952   -107642.38    292.85878   -662.75297    139372.86   -116093.77    -108989.5    163.62949 
  106000    571.69237    1534.5056    2646.4663    495.84445    281.17473   -110570.43    3017.1044   -107553.32    298.48894    596.12762    139013.37   -116100.11   -106344.75    164.18614 
  107000    541.09837    1516.0751     2603.785    492.57226     279.8598   -110595.78    3054.2392   -107541.54    302.16278   -286.84583    139123.52   -116029.17   -108123.54    164.74582 
  108000    546.55542    1553.3298    2624.3332     509.0425     270.2295   -110581.09    3101.0916      -107480    306.79798    3.5241768    139470.35   -116084.58   -107472.83    163.41843 
  109000    537.52619    1537.0455     2623.857    503.00411    284.64565   -110622.06    3035.3321   -107586.72    300.29225   -707.28434    139511.36   -116108.13   -109025.79    163.66966 
  110000     557.3321    1598.0218    2645.3092    478.27106    264.82539   -110563.37    3023.4386   -107539.93     299.1156    248.69486    139151.71   -116107.13   -107035.23    163.90962 
  111000    543.34345    1601.0013    2685.9488    498.88359    272.17589   -110487.43    2954.3643   -107533.07    292.28193   -664.78383    139386.18   -116088.79   -108884.44    164.49438 
  112000    563.34274    1532.5393     2600.858    504.23541    277.66939   -110618.22    3040.6431   -107577.58    300.81767    479.25595    139190.07   -116096.86   -106604.71    164.29494 
  113000    550.86394    1566.7828    2643.6486    503.16473    270.07723   -110552.03    3079.0587   -107472.97    304.61822    166.58488    138904.41   -116086.57   -107135.51     164.3081 
  114000    558.12987    1549.4021    2639.4422    501.76967    282.83871   -110598.46    3052.9775   -107545.48    302.03795   -495.59142    139597.01   -116130.04   -108554.45    164.39506 
  115000    550.73866    1536.1479    2663.2153    502.13138    284.50819   -110564.42    3031.8314   -107532.59    299.94591    233.72394    139164.03   -116101.17   -107058.23     164.3729 
  116000    537.64197    1530.5119      2665.44    486.55738    290.87416   -110583.13    3005.2813   -107577.85    297.31926   -390.54601    139324.94   -116094.16   -108371.41    163.77452 
  117000    551.21414    1656.6537    2638.0185    516.70365    256.70294   -110468.19    2974.9429   -107493.25    294.31781    679.52767    139011.33   -116087.48   -106115.61     163.7248 
  118000    557.13121    1538.2296    2662.0171    499.58546     276.7609   -110567.19    3028.9416   -107538.24    299.66002    217.53825    138873.17   -116100.91   -107097.66    163.49137 
  119000    552.69456    1581.9493    2662.1813    498.70335    274.58497      -110564    3038.5455   -107525.45    300.61016   -331.22912     139170.7   -116134.11   -108197.73     163.9208 
  120000    557.12595     1489.757    2616.2289    477.78098    261.64716   -110669.72    3046.1263   -107623.59    301.36014    187.68727    139421.35   -116072.26   -107241.97    164.50529 
  121000     544.4616    1562.3637    2629.9892    488.49025    281.13869   -110572.71    3120.8994   -107451.81    308.75762   -233.95846    139364.46   -116079.15   -107927.33    164.39573 
  122000    559.55957     1545.197    2637.7158    493.40819    256.99999   -110596.93    2984.8076   -107612.13    295.29375    127.73001    139358.41   -116089.82   -107352.53    162.88159 
  123000    547.77294    1530.4407    2633.3267    489.73598    264.17589   -110641.44    3041.9815   -107599.46    300.95009    31.352513    139172.74    -116106.9   -107535.83    162.92464 
  124000    563.66151    1534.4716    2668.2144    493.50513    266.08505   -110576.92    2956.8281   -107620.09    292.52567   -171.69847    139245.12   -116102.85   -107968.76    164.43979 
  125000    553.10057    1562.1677    2632.2071    485.02102    275.49965   -110597.11    3056.0329   -107541.08    302.34022    240.18649    139358.74    -116105.1   -107052.92    164.32123 
  126000    550.20866    1526.8897    2649.3851     497.8308    276.25094   -110622.47    3020.2783   -107602.19    298.80294   -263.66355    139413.28   -116123.03   -108138.27    163.64164 
  127000    559.05759    1536.4226    2689.6625    480.64666    279.00884   -110533.63    3045.8178   -107487.81    301.32962     550.1336    138981.48   -116078.43   -106372.74    164.01175 
  128000    575.00492    1553.3746    2660.1815     487.5184    273.00827   -110567.86    2987.5771   -107580.29    295.56774    537.33087    138864.04   -116116.95   -106492.09    164.61474 
  129000    574.49283    1577.5514    2607.6326    490.05855    272.40341   -110544.25    3068.9625   -107475.28    303.61938    663.69063    138610.09   -116066.39   -106133.64    163.80875 
  130000    579.62537    1550.8666    2643.4245    491.46346    277.57782   -110550.95    3056.3897   -107494.57    302.37553    360.59083    138762.19   -116093.91   -106764.84    164.08818 
  131000    552.84911    1570.7977    2639.6862    499.09565    269.91122    -110579.7    2943.1184   -107636.58    291.16934    556.76709    138722.29   -116112.04   -106510.18    162.90325 
  132000    549.02969    1535.8521    2642.0978     528.5085     269.3624   -110575.32    3084.5567   -107490.77    305.16215    131.20909    138830.39   -116100.17   -107225.11    163.13408 
  133000    541.83402    1563.0369    2615.8369    491.53197     265.6274   -110638.34    3022.5634   -107615.78    299.02902    -496.3146    139260.03   -116116.21   -108623.78    164.35461 
  134000    563.51157     1498.547    2643.4346    516.14161    281.44379   -110575.59    3055.4379   -107520.15    302.28136       599.71     138976.7   -116078.67   -106304.64    164.34548 
  135000    560.36704    1514.8792    2628.3277    503.04858    265.25073   -110621.83    2978.9714   -107642.86    294.71636   -176.90428    138820.33    -116093.7   -108001.01    164.25869 
  136000    562.69766    1540.4134    2674.5642    510.80437    284.51465   -110537.66     3006.341   -107531.32     297.4241    308.34827    138727.26   -116110.65   -106907.47    164.28025 
  137000    557.79329    1466.1346    2633.0155    528.43375    264.50906   -110629.24    3035.4333    -107593.8    300.30226    388.71175    138665.17   -116079.12   -106807.71    164.25786 
  138000    555.18732    1516.4914    2627.4358    526.68097    288.30346   -110545.78    3113.0174   -107432.76    307.97783    527.95428    138592.91   -116059.88   -106365.64    163.11311 
  139000    561.51827    1536.8586    2610.2105    511.07944     294.3943    -110569.5    2991.4469   -107578.05    295.95059   -51.579923    138915.93   -116083.56   -107682.55      163.538 
  140000    555.03961    1499.9192    2615.3521    496.20521    268.05813    -110649.9    2991.5946   -107658.31     295.9652    645.84009    138730.36   -116084.47   -106351.62    163.51531 
  141000    569.65327    1525.9938     2641.015    531.47464     267.7941   -110559.22    3036.9904   -107522.23    300.45631    918.44941    138510.26   -116095.15   -105666.93    163.26424 
  142000     551.9442    1529.8865    2685.4264    491.07191    263.18326   -110528.26    3006.0203   -107522.24    297.39237     245.1107     138974.4   -116049.78   -107025.45    164.62203 
  143000    586.16593    1583.4647    2697.7376    485.95978    280.11489   -110516.57    2982.1817   -107534.39    295.03396    872.14747    138667.53   -116150.01   -105770.62    164.19561 
  144000    562.42207    1552.8815     2630.138    488.49076    261.85584   -110582.74    3038.4689   -107544.28    300.60258    342.13386    138649.55   -116078.53   -106852.46    164.69729 
  145000    558.94494    1518.0552    2619.4108    502.21885    260.80613   -110650.16    3035.0085   -107615.16    300.26023    701.79062    138624.97    -116109.6   -106196.34    163.61709 
  146000    578.62071    1532.0417    2657.4848      496.345    262.34236   -110572.54    3061.4144   -107511.12    302.87263    594.33777    138494.74   -116099.37   -106310.68    163.86488 
  147000    571.09626    1538.0951    2676.2161    515.24779    255.07421   -110508.61    3106.4212   -107402.19    307.32526    785.00831    138374.79   -116064.34      -105818    164.70106 
  148000    573.00952     1534.228    2614.0028    516.04663    275.55413   -110583.46    3031.2351   -107552.22    299.88692    909.00908    138629.56    -116096.3   -105714.41    164.14701 
  149000    550.17139    1544.1565    2611.0546    530.39419    258.93836   -110549.49    3051.5698   -107497.92    301.89869   -7.8510614    138564.63    -116044.2   -107513.78     162.7974 
  150000    576.68218    1505.1212    2623.4618    483.99292    274.39123   -110655.94    2949.8188   -107706.12    291.83222    808.55007    138673.58   -116119.59    -106070.9    163.41976 
  151000    557.22583     1547.135    2629.2922    539.32917    262.47247   -110535.92    3034.9145      -107501    300.25094    184.09824    138564.36   -116071.37   -107128.97    162.87956 
  152000    560.22803    1502.3718    2682.2341    475.76617     285.5919    -110574.9    2995.6407   -107579.26    296.36549    494.88038    138554.39   -116081.09   -106579.27    163.80824 
  153000    562.71357    1513.5089    2633.6592    527.97814    285.80066   -110550.57    3116.7762   -107433.79     308.3497    370.77443    138527.95   -116074.23   -106684.72    163.07675 
  154000     553.1349    1520.3662    2688.0363    522.72968    264.96465   -110531.87    2975.7501   -107556.12    294.39767    226.80567    138446.14    -116081.1   -107098.18    163.98386 
  155000    555.65345    1568.3675    2660.0372    522.59976    285.33734   -110486.12    3000.2689   -107485.85    296.82336    501.78442    138981.25   -116078.12   -106468.79    163.57914 
  156000     560.8169    1512.5341    2618.4192    507.59747     270.0768   -110605.32     3081.613    -107523.7    304.87093     390.9325    138591.93   -116074.76   -106733.54    163.93591 
  157000     587.5501    1514.6298    2662.9375    515.78156     270.0721   -110569.27    3043.6357   -107525.64    301.11374     1049.938    138223.53   -116120.25   -105409.12    163.93698 
  158000     569.9327    1466.0124    2646.5607    494.63801    268.45219   -110641.36     2958.039   -107683.32    292.64546    -131.5353    138494.88   -116086.96      -107949    162.91458 
  159000    569.30818    1499.0189    2669.0537    505.04816    266.65317   -110556.61    3084.1695   -107472.44    305.12384    828.39529    138472.07    -116065.7   -105799.52    164.21898 
  160000    584.53292    1462.0146    2699.5863    490.89727    274.00621   -110571.72    2986.9641   -107584.75     295.5071    710.33208    138486.89   -116082.76    -106150.1    162.60324 
  161000    577.46369    1502.9602    2677.3278    495.96381    288.75726   -110539.21    3019.3562   -107519.86    298.71172     323.8012    138289.56   -116081.69   -106866.81    162.57998 
  162000    573.67415    1498.1741    2638.0973    500.66845    265.64392   -110615.95    2997.2382   -107618.71    296.52353     1000.148    138051.35   -116092.21   -105605.08    164.33983 
  163000    578.36128     1467.123    2669.0766     496.2591    293.00827   -110577.74    2979.0553   -107598.69    294.72466    823.82423    138223.02   -116081.57   -105937.99    164.47127 
  164000    584.18786    1536.9499    2683.2561    508.28925    272.77118   -110506.47    3031.1891   -107475.28    299.88237    855.22787    137920.28   -116091.93   -105755.06    164.00813 
  165000    561.29852    1441.0204    2630.7352    491.53045    261.38183    -110653.7    3036.4526   -107617.25    300.40311    692.85451    138311.56   -116039.67   -106219.67     164.4901 
  166000    584.16211    1507.5178    2610.2464     513.8638      281.204   -110589.15    3063.1158   -107526.03    303.04095    852.56934    138078.05   -116086.14   -105809.19    163.41276 
  167000    600.58351    1516.3757    2707.3351    516.38381    287.82931   -110490.37     3026.661   -107463.71     299.4344    954.01985    137877.28   -116118.88   -105545.37     163.0184 
  168000    569.61473    1499.9316    2628.8459    505.94184    261.31829   -110614.77    2947.3504   -107667.42    291.58803    816.82093    138336.67   -116080.42   -106019.48    162.59866 
  169000    576.23791    1494.1395    2698.0949    496.16834    276.56234   -110588.66    3067.5861   -107521.08    303.48321      796.464    138454.04   -116129.87   -105912.85    163.78823 
  170000    550.36053    1539.3803    2645.0549    509.98891    291.26562   -110581.04    3028.8069   -107552.24    299.64669    372.20358    138501.88   -116117.09   -106800.42    163.98263 
  171000    587.17482    1505.0892    2682.4829    500.82962    241.72132   -110598.39    3114.2146   -107484.17    308.09627    1081.3942    138078.31   -116115.69   -105306.54     163.7307 
  172000    573.03584    1499.0657    2719.2632     505.0087    254.15246   -110526.53    2989.2261    -107537.3    295.73088    78.063209    138692.69   -116077.06   -107379.41    164.27736 
  173000    566.98612    1512.9723    2622.5575    536.67828    291.64797   -110540.94    3065.8624   -107475.08    303.31268    1073.1519    138241.05   -116071.78   -105311.49    164.55174 
  174000    573.81268    1547.6122    2649.2494    512.30621    253.59831   -110578.75    3013.7774   -107564.98    298.15979    502.36648    138736.81   -116115.33   -106548.52    164.31979 
  175000    563.80303    1467.6061    2642.7114    512.60839    267.97678    -110612.5    3127.3407   -107485.16    309.39486    820.42474     138449.9   -116067.21    -105828.6    163.32493 
  176000    581.29574    1511.0445    2696.8506    511.78102    255.58887   -110579.76    2981.9175   -107597.84    295.00782    313.71861    138403.41   -116136.32   -106964.61    164.41803 
  177000    565.96456    1519.0888     2691.077    518.77289    284.83412   -110507.21    3049.4119    -107457.8    301.68519    533.30692    138401.92   -116086.95   -106381.35    164.01773 
  178000    589.11017    1427.9336    2671.9769    510.33483      259.444   -110626.75    3028.3301   -107598.42    299.59952    895.14257     138154.4   -116085.55   -105794.85    163.11556 
  179000    561.33259    1503.4196    2657.2183    547.32583    261.34567   -110535.57    3020.0739    -107515.5    298.78272    272.57653    137967.53   -116066.21   -106967.04    164.65736 
  180000    584.14455    1492.7757    2624.8175    528.75122    283.21098   -110590.93    3086.1457   -107504.78    305.31936    1346.2612    138142.99   -116104.63   -104792.51    163.87658 
  181000    565.47159    1522.0127    2682.7619    522.12971    285.03931   -110522.08    2982.5101   -107539.57    295.06645    570.78891    138374.68    -116099.5   -106387.69    163.24375 
  182000    586.23564    1444.0364    2657.1097    523.20878    288.46112   -110572.53    3043.9988   -107528.53    301.14967     995.0023    138043.24   -116071.58   -105525.37    163.18324 
  183000    584.17899    1519.6885    2612.8252    492.35111    255.51841   -110620.32    2925.2242    -107695.1    289.39903     981.4141    138332.13   -116084.89   -105715.16    164.19793 
  184000    575.78952    1512.1362    2632.0088    493.42018    273.20705   -110565.18    3090.1789      -107475    305.71837    201.16359    138430.54   -116051.74   -107068.87    164.13136 
  185000    576.94051     1479.138      2633.76    511.20779    264.06204   -110610.91     2973.282   -107637.63     294.1535    1161.4297    137935.41   -116076.02   -105301.24    164.29239 
  186000    585.00451    1525.7365    2689.5828    521.98508    270.64797   -110526.48    3010.4801      -107516    297.83358    788.21963     137898.2   -116119.44   -105930.81    164.16587 
  187000    584.95847    1494.0369    2640.4553    503.42204    261.32165   -110619.66    3080.5485   -107539.11    304.76561     596.1533    138048.07   -116103.86   -106338.89    164.60922 
  188000    578.66024    1527.1743    2667.2137    486.46787    262.46994   -110562.22    2959.3293   -107602.89    292.77312     565.6241    138129.09   -116084.21   -106463.46    164.02566 
  189000    586.81317    1564.4777    2624.5747    502.71236    278.69758   -110516.61    2982.0683   -107534.54    295.02274    1042.8963    137692.55   -116073.89    -105440.3    164.33956 
  190000    577.38822    1540.8168    2614.5153    504.51181    279.40115   -110557.18    3141.9688   -107415.21    310.84206    1367.2895    138235.93   -116073.81   -104658.71    163.21497 
  191000    577.64131    1523.0927    2632.3257      504.872    288.11969    -110591.4     3058.551   -107532.84    302.58934    6.3505722     138235.7   -116117.45   -107520.04    163.61377 
  192000    580.84947    1539.5343    2617.7671    503.89048    287.25376   -110557.11     3121.586   -107435.52    308.82554    1102.5867    138100.21    -116086.4   -105214.86    164.13933 
  193000    575.32079    1479.7881    2662.2016    549.78189    272.83276   -110550.83    3067.4138   -107483.41    303.46617      555.624    138300.02   -116090.75   -106362.74    164.40146 
  194000    571.93308     1455.872    2635.5125     507.7994    294.81843   -110602.52    2990.8587   -107611.66     295.8924    875.17934     138116.4   -116068.45    -105848.8    163.66566 
  195000    583.48947    1464.9609    2658.8072    513.71435    282.05999   -110567.89    3038.0532   -107529.84    300.56146    960.27877    137895.09   -116070.93   -105598.66    164.44915 
  196000    578.32834     1515.503    2678.7344    523.78974     286.6626   -110508.03    3003.6687   -107504.36    297.15972    775.80773    138069.81   -116091.05   -105942.19    164.52591 
  197000    585.73578    1521.4266    2649.5452    536.43646    285.65564   -110482.33    3087.3769   -107394.96    305.44116    786.39948    138113.49   -116061.13   -105810.96    163.32827 
  198000    583.77251    1517.7313    2640.4752    508.65738    283.02631    -110584.7    3097.0798   -107487.62    306.40108     682.5031    138073.96   -116118.37   -106113.29    164.01326 
  199000    569.29293    1526.8817    2640.0893    492.92303    272.20184   -110595.05    3031.4222   -107563.63    299.90543    563.81196    138519.77   -116096.44   -106424.64    164.18016 
  200000    572.47911    1539.4554    2658.0296    512.52822    257.86309   -110549.08    2959.1052   -107589.98    292.75095    333.44403    138227.74   -116089.44   -106917.78    163.15002 
  201000    590.12621     1483.678    2636.1707    493.55633    271.62487   -110602.09    3095.2557   -107506.83    306.22063    1720.1489    137637.34   -116077.24   -104053.98    164.63382 
  202000    599.06675     1491.036    2720.9504    495.12735    275.37889   -110538.71     2973.572   -107565.14    294.18218    848.48917     138184.9   -116120.27   -105855.19    164.20016 
  203000    578.75456    1496.7324    2650.6801    489.65393    263.91049   -110600.62    2985.9007   -107614.72    295.40189    802.71407    138295.81   -116080.35   -105995.73    163.78468 
  204000    585.14051    1454.8618    2675.6958    509.70019    277.29876   -110568.72    3086.4425   -107482.28    305.34872    997.68152    137774.73   -116071.42   -105477.63    162.91933 
  205000     591.6137    1509.3069    2650.1923    478.60817    261.17404   -110624.33    3002.8346    -107621.5     297.0772    1291.9843    137956.28   -116115.23   -105022.09    164.28427 
  206000    573.56189    1527.0577    2662.1179    508.14834    278.36977   -110532.45    3081.4907   -107450.96    304.85882    1018.7163    138016.03    -116081.7   -105400.46    164.84037 
  207000    582.30745     1515.553    2640.1471    477.60831    267.22858   -110610.35    3041.3323   -107569.02    300.88586    1221.1004     138172.6    -116093.2   -105108.38    163.89915 
  208000    588.46232    1478.7459    2642.6736     508.7731    276.55294   -110574.96    3070.5178   -107504.45    303.77325    1275.6696    137729.68   -116070.17   -104942.08    163.40919 
  209000    573.38575    1498.2048    2666.6099    513.22942    274.67531   -110567.77    3036.3888   -107531.39    300.39679    960.70034    138079.73   -116093.88   -105596.77    163.86436 
  210000    577.21204    1508.4305    2667.8403    517.37938    272.32017   -110538.47    3099.1897   -107439.28    306.60983    827.51846    137595.43   -116081.65    -105778.7    163.30717 
  211000    585.11515    1514.1498     2667.774    545.93036    296.87076   -110461.69    3012.8233   -107448.87     298.0654    790.22952    137855.69   -116071.53   -105860.13    164.83814 
  212000    595.24572    1462.2725    2645.7497     494.5799    254.99786   -110624.63    3051.8678   -107572.76    301.92816     1102.667    137497.43   -116077.47   -105361.63    163.41033 
  213000    601.40419     1519.284    2708.2054    533.99433    276.34044   -110468.18    3079.3136   -107388.87    304.64344    1054.3073    137619.82   -116107.41   -105272.83    163.75368 
  214000    589.21047    1458.7983    2675.0468     522.8381    254.57838   -110549.19    3032.1952   -107516.99     299.9819    1194.6361    137613.71   -116049.66   -105119.41    163.57288 
  215000    597.13146    1527.0752    2654.0974    537.84506    276.63424   -110490.35    3071.0377   -107419.31    303.82468    2014.4221    137389.17   -116083.13   -103383.06    164.24708 
  216000    579.19299    1476.4121    2654.2566    498.89451    275.41203   -110612.11    3082.0972   -107530.01    304.91883    713.33437    137900.38   -116096.28    -106095.4    164.50212 
  217000    603.30122    1507.4346    2663.0852    541.27436     276.2717   -110522.69    3017.7221   -107504.97    298.55006    1019.0192    137297.53   -116114.06   -105464.54    163.88013 
  218000    568.47071    1446.8588    2625.1249    525.96775    280.74967   -110580.15    2960.6748   -107619.47    292.90624    1152.3485    137268.88   -116027.32   -105312.56    164.08307 
  219000    588.05621    1449.3026    2685.5365    541.42128    262.10676   -110550.64    3076.5484   -107474.09    304.36987    1087.0512    137693.48   -116077.06   -105291.16     163.6689 
  220000    587.48164    1497.7396    2676.2333    543.01898    278.34288   -110500.63    2982.8973   -107517.74    295.10475     836.7457     137504.2   -116083.45   -105839.76    163.59257 
  221000    591.25575    1444.8232    2640.3181    521.08886    273.67059   -110588.77    3145.9233   -107442.85    311.23329    1279.1478    137334.16   -116059.92   -104880.87    164.67804 
  222000    578.35059    1447.4356    2648.0978    529.76727    263.96989   -110558.89    3016.6984   -107542.19    298.44878    1135.7987     137584.4   -116026.51   -105263.18    164.30597 
  223000    577.58351    1511.1811     2670.855     543.4958    267.54715   -110501.55    3000.1263   -107501.42    296.80926    822.54155    137424.21   -116072.21   -105852.89     164.4647 
  224000    585.94879    1491.1894    2710.6486     518.2431    266.23819    -110517.7    3033.1776   -107484.52     300.0791    1265.6443    137599.74   -116089.96   -104944.68    163.90898 
  225000    601.43354    1462.3539    2693.1624    520.97216    260.15181   -110559.22    3001.0518   -107558.17    296.90082    1437.7209    137595.61   -116097.29   -104673.11    164.13241 
  226000    595.01333    1499.1397    2649.2445    504.08025    260.72305   -110573.46    3014.1065   -107559.35    298.19236    1508.3752    137634.43   -116081.66   -104531.66    164.14272 
  227000    606.84589    1491.0517     2669.965    512.77274    286.55324   -110521.74    3020.4531   -107501.28    298.82023    1427.1484    137485.23   -116088.93   -104639.74     163.0638 
  228000    595.99419    1498.5334    2668.0652    520.24242    261.00207   -110543.84    3065.3024   -107478.53    303.25728    1513.5919    137321.71   -116087.67   -104447.27    163.85448 
  229000    590.84595    1492.8109    2698.0128    526.36706     291.5019    -110477.9    3033.1282   -107444.77    300.07422    1400.9168    137158.58   -116077.44   -104642.49    163.76245 
  230000    594.02883    1500.1803     2678.359    537.10678    272.87332   -110524.59    3103.3017   -107421.29    307.01663    1573.6836    137361.66   -116107.14   -104268.76    163.72652 
  231000    592.59461    1528.2546    2657.3904    548.42525    284.78456   -110487.78    3049.0918   -107438.69    301.65353    1063.9449    137465.18   -116099.23    -105305.7    164.50634 
  232000    583.29599    1462.7073    2657.4767    497.57963    287.65524   -110586.84    3081.9994   -107504.84    304.90915    576.78774    137774.42   -116075.55    -106345.9    164.69369 
  233000    610.91243    1470.3727      2657.79    522.50513    278.64417   -110528.57    2938.1991   -107590.37    290.68266    1716.1464    137018.14    -116068.8   -104161.05     163.7462 
  234000    602.43149    1488.4877    2669.1345    503.69002     265.8965   -110538.31    3068.2443   -107470.07    303.54832    1433.8579    137279.08   -116067.95   -104599.37    163.14978 
  235000    616.78501    1438.0578    2679.2507    523.65446    285.86629   -110538.96    3017.7722   -107521.19    298.55501    2105.8248    136647.27   -116082.58   -103324.58    164.46257 
  236000    606.21759    1452.6543    2692.6065    549.11288    274.49369    -110513.8     3029.777   -107484.02    299.74267    1536.4244    137163.77   -116088.88   -104410.57    163.97682 
  237000    586.91431    1496.4293    2694.8422    508.15128    260.77606   -110564.55    2947.7394   -107616.81     291.6265    1207.1175    137475.23   -116111.66   -105196.62    162.90136 
  238000    601.61109    1441.7988    2673.2081    560.88172    261.67471   -110520.54    2992.7466    -107527.8    296.07917     1812.375     136990.2   -116059.72   -103906.92    163.87658 
  239000    600.86159    1537.5959    2664.9778    521.03243    259.11838   -110478.81    3109.2985   -107369.51    307.60991     928.2757    137457.84   -116062.39   -105508.61    163.96356 
  240000    601.97244    1473.6785    2667.9095    530.16917    255.69093   -110565.84    3049.4134   -107516.43    301.68535    1790.0154    137250.87   -116095.26   -103933.42    162.92621 
  241000    613.40852    1443.7499     2712.342    526.87138    279.55435   -110518.76    2968.3267   -107550.43    293.66325    1308.7107    136824.02   -116094.68   -104938.98    163.40073 
  242000    614.34026    1456.2474    2684.4517    537.69195    261.76722   -110566.51    2979.3689   -107587.14    294.75568    1605.6415    136888.93   -116121.01   -104381.67     164.0849 
  243000    618.35199    1478.1674    2683.7932    513.17344    257.83827    -110529.9    3064.6966   -107465.21    303.19734    1623.3883    137132.66   -116081.23   -104218.53    164.01377 
  244000    610.37381    1491.0427    2668.0245    495.14949     269.5236   -110599.35    2994.1853   -107605.16    296.22151    1601.2261    137296.85   -116133.46   -104398.97    164.36261 
  245000    620.94692     1462.476     2681.504    517.96332    281.06767   -110528.47    3093.1957   -107435.27    306.01683    1533.1003    136750.11   -116092.43   -104377.72    163.57389 
  246000    590.61053    1550.0724    2667.0694     507.8187    290.42908   -110521.05    3087.0086   -107434.04    305.40473    1340.0338    137197.43   -116127.05   -104752.79    163.56332 
  247000    604.81535    1495.6008    2664.4218    508.37738    261.22127   -110553.58    3133.2097   -107420.37     309.9755    1473.6156    137609.15   -116088.02   -104462.99    163.75057 
  248000    594.20073    1476.6165    2658.7672    517.05427    289.13375   -110552.16    3036.2015   -107515.96    300.37826    1141.5853    137283.66   -116087.94   -105230.35    164.33665 
  249000    605.05104    1458.2557    2690.6236    533.21372    266.31398   -110519.35     3136.407   -107382.94    310.29182    1591.5368    137061.05   -116072.81   -104201.63     163.2289 
  250000    603.14798    1537.3378    2652.3019    531.81016    267.38599   -110532.42    3051.6806   -107480.74    301.90964    1225.2449    137303.19   -116124.41   -105027.28    163.16046 
  251000     599.0369    1487.6276     2665.343    498.43303    287.34546   -110532.12    3028.9824   -107503.14    299.66406    558.26256    137546.66   -116069.91   -106383.28    164.03675 
  252000     596.8472    1476.8354     2710.885     526.7688    288.21742   -110509.07    3021.6441   -107487.43    298.93806    1490.0979    137284.68   -116108.62   -104504.02    163.77219 
  253000     609.0623    1477.6454    2672.2684    543.07667    305.83959   -110475.63    3058.2267    -107417.4    302.55726     2087.085    136972.69   -116083.52   -103248.23    164.33735 
  254000    590.94874    1471.8487    2680.2846    538.86629    279.63477   -110502.14    2982.2829   -107519.85    295.04397    688.74492    137028.17   -116063.72   -106143.46    164.19774 
  255000    625.31363    1503.0206     2704.531    535.76477      305.847      -110424    2941.1116   -107482.89     290.9708    1578.7435    136837.08   -116098.48   -104332.31    163.09698 
  256000     614.0023    1391.8227    2689.1554    521.35088    304.88412   -110580.06    2999.6483   -107580.42    296.76197     1475.446    136804.99   -116101.28   -104636.67     163.1673 
  257000     614.7354    1489.9053    2688.1993    550.48411     273.0299   -110482.12    3031.6282   -107450.49    299.92582    1594.0996    136554.17   -116098.48   -104275.84     163.7322 
  258000    609.47493    1482.5011    2667.1152    508.92532    272.28573   -110567.92    3099.1562   -107468.77    306.60651    2119.4673    137105.25   -116108.23   -103230.81    164.07909 
  259000    606.97987    1507.1144    2674.3445    541.97805    265.70109   -110491.08    3049.6561   -107441.42    301.70936    1283.3576    137451.28    -116087.2   -104868.82    163.75486 
  260000    598.52381    1449.8703    2662.7941    509.35809     261.1589   -110579.14      2988.03   -107591.11    295.61255    1579.2406    137006.59   -116060.85   -104435.63    164.11772 
  261000    605.03921    1488.2417    2685.7578    535.50114    276.01915   -110500.81    3070.9921   -107429.82    303.82017    1811.0109    137366.19   -116091.37   -103801.74    163.85129 
  262000    598.15658    1465.4027    2643.8612    512.30457    280.55205   -110587.87    2992.9913   -107594.88    296.10338    1051.3117    137404.17   -116088.15   -105488.16    163.85967 
  263000    606.16438      1426.32     2698.252    544.40603    281.55794   -110521.25    3041.8378   -107479.42    300.93587    1995.7835    136909.66   -116077.96   -103494.46    163.54958 
  264000    625.91948    1477.8815    2702.4895    527.77553    274.99202   -110483.32    3099.6343   -107383.68    306.65382    1818.8769    136827.42   -116092.38   -103754.14    164.12093 
  265000    624.71406    1489.0519    2697.6147     544.5636     274.1904   -110496.15    3052.7203   -107443.43     302.0125    1746.3731    136940.27   -116126.28   -103955.69    163.44129 
  266000    607.54334    1458.7083    2638.0586    513.67805    272.93758   -110608.12    3000.6852   -107607.44    296.86456    2123.3763    137230.37   -116099.05   -103357.79    163.85717 
  267000    598.40236    1530.0291    2713.1537    513.22969    272.29623   -110447.56    2985.8667   -107461.69    295.39852    787.99855    137055.13   -116074.67   -105886.63    163.58591 
  268000    622.81668    1520.4404    2671.6704    528.98898    286.09789   -110468.41    3055.9464   -107412.46    302.33167    1818.1314    137345.49   -116098.42   -103770.66    163.94652 
  269000    589.47234    1496.5603    2688.1619    521.49398    278.82271   -110541.81    2989.3503   -107552.46    295.74317    1226.6706    137127.35   -116116.32   -105099.29    162.94437 
  270000    597.01954    1477.4834    2669.3105    522.75606    268.96448   -110530.98    3050.8577   -107480.12    301.82823    1881.0616    136987.73   -116066.51   -103722.09    163.92085 
  271000    633.07816    1457.4031    2663.7622     516.2855    295.73089   -110519.53    3009.8817   -107509.65    297.77438     1872.155    136699.78   -116085.79   -103777.27    162.56784 
  272000    627.77751    1511.5912    2667.7792    531.67822    275.51263      -110501    3002.5034    -107498.5    297.04443    1717.3705    136920.21   -116115.34   -104069.18    163.83213 
  273000     590.8549    1470.2801    2653.8521    519.15305     280.1974   -110536.22    3052.4262   -107483.79    301.98341    1455.6398    136971.55   -116050.55   -104576.02    164.12408 
  274000    593.86246    1489.7353    2695.7364     545.5525    297.08372   -110450.51    3106.5498   -107343.96    307.33798    1153.2205    136907.61   -116072.48   -105041.37    163.96878 
  275000     614.3429     1407.984    2698.0502    532.65862    289.66485   -110533.69    3031.0799   -107502.61    299.87157    1405.5889    136983.43   -116076.39   -104694.57    164.49806 
  276000    628.92978    1454.7087    2705.2257    549.38848    296.01455   -110463.92    2978.1962   -107485.72    294.63967    1864.5136    136363.98   -116098.19   -103777.71     163.0725 
  277000     620.1628    1450.6558    2682.6314    533.45258    279.00534   -110482.64    2986.0594   -107496.58    295.41759    2136.6325    136592.41   -116048.55   -103240.28    164.03037 
  278000    597.47542    1488.7849    2701.5514     553.4443    297.15353   -110461.97     3008.238   -107453.73    297.61177    1583.9824    136130.95   -116100.38      -104309    162.57162 
  279000    600.01683    1502.9441     2633.997    520.64315    278.83222   -110534.12    3000.8616   -107533.26    296.88201    2051.7636    136930.71   -116070.55    -103435.9    162.98468 
  280000    592.03829    1477.0637    2692.2535    526.63396    275.17651    -110571.4    2988.1251   -107583.27    295.62195    1882.4787    137122.45   -116134.56   -103818.71    163.99374 
  281000    619.87306    1473.5136    2746.3921     547.0332    306.73576   -110406.53    2979.3368   -107427.19    294.75251    1584.4328    136382.92   -116100.08   -104275.75    164.25518 
  282000     602.0406    1483.8492    2720.7296    543.52649    261.58916   -110461.88    2980.8841      -107481    294.90559     1564.373    136164.16   -116073.62   -104374.44    163.83328 
  283000     634.9182    1485.6671    2708.2697    531.79105    271.51555   -110492.55     3026.528   -107466.02    299.42124    2336.3137    136234.62   -116124.71   -102824.13    164.19878 
  284000    607.93083     1464.302    2679.2247    533.23595    278.03848   -110521.65    3002.7348   -107518.92    297.06733    1844.6918    136343.37   -116084.39   -103850.88    163.45839 
  285000    628.82835    1518.9534    2692.1765    553.90622    291.67348   -110411.66    3007.3199   -107404.34    297.52094    2074.9336     136491.7    -116097.2      -103274    162.42932 
  286000    608.81873    1492.9412    2712.5651    516.41642    270.92793   -110530.21    3079.2137      -107451    304.63355    1297.6963    136801.47   -116131.88   -104861.95    163.40043 
  287000      651.821    1412.6059    2697.6064    529.60665    289.76735   -110486.38    3012.1702   -107474.21    298.00079    2141.3336    136018.61   -116067.79   -103226.46     163.7103 
  288000    602.17215    1530.7731    2682.3782     527.6411    293.16689   -110470.56    3065.5621   -107404.99    303.28297    1497.1017     136531.2   -116106.69   -104424.01    164.22297 
  289000    619.47333     1494.033    2711.0155    533.43827    277.36707   -110473.39    2978.0204   -107495.37    294.62227    1914.4553    136810.86   -116108.72   -103675.56    163.34219 
  290000    616.16744    1477.5569    2697.5126    547.71459    274.68747   -110461.58    3041.8298   -107419.75    300.93508    2319.7945    136148.76   -116075.22   -102813.59    164.11046 
  291000    617.62356    1540.0976    2700.0637    539.32455    282.95782   -110448.52    3042.5831   -107405.93     301.0096     1795.612    136416.62   -116128.58   -103833.57    163.89303 
  292000    629.04481    1443.5816    2709.7903    569.69287    289.34684   -110418.08    3036.7021   -107381.37    300.42778    2561.5025    135814.12   -116059.53   -102307.78    163.55698 
  293000    600.70853    1512.9238     2710.392    554.38342    283.84897   -110425.26    2998.6538   -107426.61    296.66358    1805.9109    136067.39   -116087.52   -103842.95    162.65667 
  294000    621.35878    1425.0083    2662.8971     556.3248    285.32467   -110570.85    3041.6678   -107529.18    300.91905    1983.2447    136232.49   -116121.76   -103588.85    163.77733 
  295000    611.52773    1450.8787     2688.437    548.30053    287.35797    -110481.4    3089.2862   -107392.11    305.63005    1823.0646    136022.66    -116067.9   -103775.61    163.83809 
  296000    608.99154    1466.7835    2720.6507    549.41639    262.70524   -110496.84     2997.628   -107499.21    296.56209    2285.7908    136052.65   -116105.38   -102963.77    162.98288 
  297000    612.96827    1483.8664    2678.5298    532.05359    278.12512   -110497.42    2997.3528   -107500.07    296.53487    2044.8556    136044.57   -116082.96   -103442.93    163.94297 
  298000    613.56656    1532.7324     2718.229    554.20746    279.04498   -110407.11    3044.3463   -107362.76    301.18405    1768.1279    135894.45   -116104.89   -103858.54    163.92964 
  299000     614.6447    1454.4125    2682.5087    565.58678    300.41797    -110453.2    3009.3838   -107443.81    297.72513    1690.9912    135792.37   -116070.77   -104094.99    163.53655 
[...]
  509000    615.18214    1437.9727    2708.4267    562.57137    261.48672   -110483.74    3002.1033   -107481.64    297.00485    2230.0124    135756.16   -116069.38   -103066.52    164.41111 
  510000    632.10358    1449.2297     2703.695    541.78658     257.2615   -110497.45    3057.5798   -107439.87    302.49326    2174.2406    135891.71   -116081.53   -103130.87    164.56233 
  511000    624.65255     1448.005    2667.4596    532.67231    277.28048   -110531.54    3029.3842   -107502.16    299.70381    1988.9748    136554.26   -116081.61   -103541.11    164.62796 
  512000    628.49599     1538.835    2706.0436    564.20086    281.15255   -110376.79    2982.6624   -107394.13    295.08152    1579.1274    136300.67   -116095.52   -104255.13    163.68426 
  513000    623.85535    1478.0106    2683.0764     546.9312    274.43689   -110495.01    2992.2059    -107502.8    296.02567    1975.0774     136185.3   -116101.32   -103580.06    163.06806 
  514000    591.25329    1454.9088    2672.5255    538.93843    294.59957   -110510.34    2951.2175   -107559.13     291.9706     1381.255     136407.4   -116062.57   -104811.31    163.73982 
  515000    641.37385    1492.9723    2695.3029    549.26794    278.38234   -110465.37     3016.909   -107448.46    298.46961    1999.8762    136605.84   -116122.66   -103464.19    162.76966 
  516000    629.93818    1391.8176    2702.5589    532.47719    294.19606   -110516.18    3068.7291   -107447.45    303.59629     2221.649    136126.41   -116067.17   -103036.89    163.82834 
  517000    632.09816    1479.7979     2691.807    580.34079    269.90168   -110460.96    3075.2991   -107385.66    304.24627    2271.2083    135697.91    -116114.9    -102890.9    164.02819 
  518000    622.22632    1425.4446    2719.8371    541.17973     254.8714   -110502.18    3016.5769    -107485.6    298.43676    2440.4825    135938.39   -116065.74   -102647.29    164.29375 
  519000     633.8978    1530.7938    2702.2709    547.09282    276.41419    -110413.6    2993.0195   -107420.58    296.10617    2107.3609    136249.32   -116104.07   -103233.13     164.1334 
  520000    611.63132    1429.4946    2706.3682    533.84559    278.60381   -110474.12    2961.7601   -107512.36     293.0136    2026.8573    136142.17   -116034.06   -103488.05     163.5319 
  521000     630.7678     1469.307    2707.0118    590.51096    259.27208   -110434.16    3033.4297   -107400.73    300.10404    2131.8682    135570.35   -116091.03    -103185.7    162.15535 
  522000    621.39778    1455.8019    2679.6637    576.52247    281.79813    -110470.3    3035.5171   -107434.79    300.31055     1826.618    136074.58   -116085.49   -103809.85    163.04638 
  523000    638.48706    1399.4832    2694.0412    540.67213    295.89598   -110541.03    3025.3977   -107515.63    299.30942    2381.9008    135845.18   -116109.61    -102796.7    163.89581 
  524000    607.40345    1495.3188    2693.3181     568.5483    283.67778   -110450.55     3104.121   -107346.43    307.09769    1474.3985    136085.87   -116098.82   -104420.24    164.62309 
  525000    618.14213    1473.3103    2696.7309    587.36306    296.39877   -110374.73    2996.2434   -107378.49    296.42512    1750.0837    135641.85   -116046.68   -103916.48    162.83617 
  526000    613.77423    1486.1761    2731.3552     555.4095    248.54546   -110438.96    2932.0987   -107506.86    290.07914    1725.9255    136066.53   -116074.22   -104081.95    163.86861 
  527000    613.76215    1462.0558    2666.2001    544.30579    283.97392   -110519.73     2990.677   -107529.05    295.87442    2061.4863    136470.83   -116090.02    -103426.1    163.63021 
  528000    606.36731    1463.8868    2675.6957    544.31363    298.31582   -110496.54    2981.0978   -107515.44    294.92673    1928.1354    136514.08   -116085.12   -103676.68    162.53786 
  529000    609.71568    1460.6819     2693.459    550.34088    283.37335   -110457.87    3111.8662      -107346    307.86394    2097.9349     136279.3   -116055.44   -103176.37    164.02211 
  530000    623.60979    1499.1568    2696.9516    564.66765    297.21406   -110419.57    3075.0804   -107344.49    304.22463    1895.4188    135774.17   -116101.17   -103591.32    164.29021 
  531000    622.13318    1476.2991    2702.2548    527.63118    282.56714   -110464.08    2991.7748   -107472.31    295.98302    1773.7276    136410.77   -116074.97   -103943.64    164.42998 
  532000    612.52421    1445.0757     2708.263    517.59314    288.31674    -110535.5    3011.0237   -107524.48    297.88736    1905.5368    136370.67   -116107.27   -103734.69     163.3913 
  533000     611.4905    1463.0072    2681.1737    534.09859    289.25122   -110475.03    3081.8217    -107393.2    304.89157    2121.4846    136093.57   -116054.05   -103182.51     163.8891 
  534000    611.39116    1471.1875    2703.6141    551.54797     282.3998   -110460.94    3087.2041   -107373.74    305.42406    2000.8246    135931.89   -116081.08   -103407.25     162.5957 
  535000    604.39326    1517.3167    2685.6127    555.72246    270.98262   -110437.08     2963.575    -107473.5    293.19316    2099.0315    136331.24   -116071.11    -103300.1    163.15132 
  536000    628.10536    1479.8781    2661.4273    553.36585    270.74967   -110481.41    3046.8584   -107434.55    301.43257    1460.3577    136803.24   -116074.93   -104520.94    162.76087 
  537000    622.01008    1482.8227    2705.4184    536.18907    272.71512   -110465.03    3000.3162   -107464.71    296.82805    1938.0397    136217.56   -116084.19   -103614.62    163.74153 
  538000    622.76992    1495.0686     2708.008    546.01864    282.19457   -110448.53    3083.9123   -107364.62     305.0984    2294.9456    135866.01   -116102.59   -102817.26    164.16075 
  539000    637.64289    1448.7974    2737.1934    527.92392    264.38483   -110523.79    3008.8971   -107514.89    297.67697    2240.0478    136010.92   -116139.73   -103071.58    164.21812 
  540000    614.20785    1498.9235    2661.2627    539.47846    285.45233   -110462.07    3019.8791   -107442.19    298.76345    2302.5425    136414.76   -116061.39   -102861.35    163.95122 
  541000     602.9178    1467.2686    2669.9805    565.10032    287.64864   -110455.76    3079.9693   -107375.79    304.70831     1816.061    136376.94   -116048.67   -103763.79    163.35855 
  542000     626.4926    1474.0614     2679.744    570.41786    276.99684   -110472.22    2975.7595   -107496.46    294.39859    2057.4273    136241.37   -116099.93   -103408.47    162.81912 
  543000    624.58676    1470.6344    2747.3331    557.06312    292.44436   -110404.74    3091.3002   -107313.44     305.8293    2393.7108    135948.45    -116096.8   -102567.51    162.43191 
  544000    620.77175    1437.6652    2661.6428    538.41588    275.63198   -110503.62    3074.3215   -107429.29    304.14956    2652.7741    135958.15   -116037.74   -102169.35    163.35879 
  545000    602.65245    1455.4874    2704.3054    558.51654    279.05624   -110471.71    3014.3073    -107457.4    298.21222    2137.3882    136029.26   -116071.73   -103217.15    164.56766 
  546000     635.1241     1452.617     2708.659    548.68401    294.23662   -110471.78    3029.3864    -107442.4    299.70403    2718.8431    136142.58   -116111.11   -102044.14    164.11934 
  547000    623.87974    1434.2443    2693.3862    544.63922    283.06411   -110508.99    3082.7356   -107426.26    304.98198    1920.3974    135989.51    -116088.2   -103617.59    163.81578 
  548000    614.11599    1489.0222    2690.2498    562.53809    278.43133   -110441.79    3009.5862   -107432.21    297.74515    1571.6428     135951.5   -116076.15   -104316.09    163.59163 
  549000    629.94965     1450.266    2657.1044    568.00548    297.80498    -110498.5    3059.7601   -107438.74    302.70896    2175.3675    136073.25   -116101.63   -103121.75       163.53 
  550000    613.12179    1450.2995    2712.1975    533.07068    252.40169   -110538.92    3018.6518   -107520.27    298.64203     1538.143    136243.19   -116100.02   -104464.03     162.8171 
  551000    626.92169    1463.0974    2714.8977    557.54824    295.18318   -110423.24    3049.9989   -107373.24    301.74327    2261.2838    136101.41   -116080.89   -102884.82    163.05942 
  552000    611.05411    1473.0359    2694.6075    574.64462    285.05509   -110459.98    2973.7023   -107486.28    294.19507    1807.8365    136161.94   -116098.38   -103896.31    163.20743 
  553000    610.30653    1448.0485    2706.9619    573.97127    253.34887   -110513.69    3122.9363   -107390.76    308.95913    1853.4539    136366.18   -116106.33   -103704.68    164.41881 
  554000    623.63392    1440.8662     2684.967    529.24423    274.41378   -110552.45    2950.6836   -107601.77    291.91779    1252.2255    136409.39   -116105.58    -105110.6    162.94771 
  555000    638.97485    1463.7735    2671.6894    549.23318    262.49678   -110543.98    3052.0707   -107491.91    301.94824     2169.777     136154.2   -116130.15   -103183.45    163.68745 
  556000    637.24748     1418.197    2691.5186    572.81125    277.70869   -110519.45     3049.236   -107470.22    301.66779    2467.4914    136170.86   -116116.93   -102569.99    162.76839 
  557000    617.92649     1407.805    2684.9698    556.05116    292.37347   -110490.35    3076.4879   -107413.86    304.36389    1734.2199    135744.63   -116049.48   -103980.63    163.59284 
  558000     631.2693    1419.3591     2649.794    550.72738    284.75838   -110532.88    3049.3958   -107483.48     301.6836    2068.6662    136250.84   -116068.79   -103372.88    163.70068 
  559000    617.52773    1490.1188      2733.59    542.57353    281.99802    -110429.5    3031.5266   -107397.98    299.91576    1533.3878    136559.29   -116095.31   -104344.12    163.95795 
  560000    619.10489    1497.9709    2708.5777    557.67573     298.6204   -110423.25    2963.1811   -107460.07    293.15419    1490.4296    136851.85    -116105.2   -104485.41    163.72223 
  561000    626.10281    1483.2304     2744.786    550.49235    275.02105   -110390.52    2990.9571   -107399.56    295.90213    1915.9885    135868.86   -116070.15   -103603.02    162.71738 
  562000    616.58295    1439.5095    2632.2787    544.84911    281.51909   -110598.79    3006.6888    -107592.1     297.4585    1964.9859    136206.16   -116113.53    -103688.8     164.0294 
  563000    623.76805    1398.4532    2723.9899    553.03105    294.83643   -110485.06    3044.2227   -107440.84    301.17181    2213.4183    135726.51   -116079.14   -103059.53    164.05715 
  564000    624.93018    1501.7044    2688.4073    572.32843    299.96663   -110387.29    3024.0835   -107363.21     299.1794    2269.5274    135772.94   -116074.63   -102869.29    163.15934 
  565000    621.67905    1440.7115    2714.6225    573.95264    289.09336   -110463.01     3032.605   -107430.41    300.02245    1914.2416    135805.22   -116103.07    -103639.1    162.31579 
  566000    614.62271    1442.7213    2681.9986    550.92292    267.17962   -110554.39    3039.4497   -107514.94    300.69961    1784.7352    136016.23   -116111.83   -103974.64    165.12823 
  567000    639.26437    1453.6456    2647.5229    536.66644    275.52765   -110534.71    3099.8854   -107434.83    306.67865    2562.9976    135821.31   -116087.34   -102358.01    163.25136 
  568000    625.76321    1418.4098    2731.2417    530.00853    275.57642   -110533.28    2968.5672   -107564.71    293.68705    2230.0523    136000.52   -116114.28   -103141.57    163.65463 
  569000    625.12307    1458.7858    2694.4174     538.4752    269.18281   -110480.83    3059.6582   -107421.17    302.69889    1538.1035    136133.65   -116066.81   -104367.47    163.26949 
  570000     617.5979    1439.5419     2691.458    533.98594    288.41792   -110505.13    3034.5049   -107470.62    300.21041    1676.6345    136159.82   -116076.13   -104141.24    163.57493 
  571000    621.41421    1465.4425    2671.7595    557.93751     304.8223   -110462.98    3074.7569   -107388.22    304.19263    2007.9283    136115.07   -116084.35   -103402.28    163.04511 
  572000    600.46551    1503.1643    2675.5983    580.65883    270.94458   -110428.55    3016.7044   -107411.84    298.44937    1875.7506    136130.38   -116059.38   -103687.88    162.82402 
  573000    600.75147    1435.8778    2723.3704    568.02579    279.06181    -110478.6    3059.4141   -107419.18    302.67474    2074.0755    136322.04   -116085.69   -103295.68    164.34367 
  574000    607.91561    1452.9637    2680.4385    571.17484    253.37323   -110519.69    3001.8021   -107517.88    296.97505    2144.5691    136403.16   -116085.55   -103251.69    163.08577 
  575000    615.15807    1476.7988    2662.5936    578.00336    271.11627   -110479.01    2995.3742   -107483.64    296.33913    2181.4788    135885.68   -116082.68   -103160.49    163.90103 
  576000    608.06011     1483.979    2689.4834     546.1224    283.77005   -110476.92    3022.7379   -107454.18    299.04627    1510.8961    135913.41   -116088.33   -104459.35    164.30527 
  577000    641.86822     1519.707    2723.7185    533.32018    289.65228   -110439.97    3074.5989   -107365.37    304.17701    1821.7562    136528.69   -116148.23   -103738.01    163.58658 
  578000      596.893    1481.6484    2682.8032    548.67221    269.23772   -110502.99    3010.8277   -107492.16    297.86797    1362.8597    136653.34   -116082.24   -104776.05    164.08282 
  579000    617.93116    1556.1275    2664.4233    561.57412    271.90761   -110423.11    3066.3736   -107356.74    303.36326     1398.855    136620.66   -116095.08   -104569.56    163.69999 
  580000    628.35244    1479.1644    2684.9652    556.35353    278.67979   -110486.66    2998.4562   -107488.21    296.64404    2048.4724    136327.95   -116114.18   -103415.43    163.17393 
  581000     625.2559    1461.9841    2663.2183    549.63472    265.03319   -110547.57    3071.5889   -107475.98    303.87922    1717.2831    136510.81    -116112.7   -104057.09    163.38684 
  582000    613.05624    1459.9441    2715.3834    551.24062    277.91112   -110444.95     3028.286   -107416.66    299.59516    2016.7326     136151.8   -116062.48   -103412.17    163.46098 
  583000    604.96099    1430.8051    2668.6686    532.13407    273.21501   -110585.04    3034.4853   -107550.55    300.20847    1583.5049    136476.81   -116094.82   -104398.78      162.737 
  584000    632.46963     1480.709    2696.0585    556.05214    289.18238   -110441.97    3003.8422   -107438.13    297.17688    2714.9375    136120.54   -116096.44    -102048.5    163.38287 
  585000    635.41498    1461.4363    2716.2446    546.77382    274.32245    -110455.3    3054.0306   -107401.27    302.14213     2216.381     135385.8   -116089.49   -103025.11    163.67287 
  586000    623.14303     1429.178    2684.4838    504.77396    266.65758   -110579.53    3034.3288    -107545.2    300.19299    1504.7606    136280.19   -116087.77   -104554.48    163.84074 
  587000    610.46064     1506.345    2699.8765    541.49702    279.90538   -110450.22    2996.2417   -107453.97    296.42495    1466.9108    136551.05    -116088.3   -104532.68    162.96558 
  588000    645.86037    1501.6326    2709.8485     536.8413    277.01295   -110420.86    3113.3228   -107307.54    308.00805    2128.1619    136178.81   -116092.06   -103080.95    164.46084 
  589000    629.03738    1398.0259     2697.247      555.603    281.38692      -110474    2988.0355   -107485.96    295.61309    1892.8972    135447.35    -116035.3   -103746.81    164.12289 
  590000    602.59124    1501.0892     2692.486     543.6546    266.65444   -110491.38    3093.6205   -107397.76    306.05885    1678.2966    136033.22   -116097.86   -104068.18    163.94983 
  591000    612.40113    1403.0217    2669.7272    554.83256    260.10027    -110566.2    3107.9185   -107458.28    307.47338    1995.6563    136200.06   -116066.28   -103494.23    163.31583 
  592000    623.05251    1478.4873     2669.097    552.70137    257.96789   -110543.48    3007.3994   -107536.08     297.5288    2038.1252    135778.86   -116124.79   -103500.19    163.26294 
  593000    617.50705    1448.3741    2674.5802      558.686    283.29733    -110474.1    3046.0221   -107428.08    301.34983    1708.1584    135989.33   -116056.54   -104040.35    162.70759 
  594000    632.45373    1442.8294    2701.6357    539.47609    269.94759   -110509.53    3035.3384   -107474.19    300.29288    2479.0538    135800.88   -116095.87   -102564.38     163.3312 
  595000    621.15096    1467.1706    2739.0245    576.38308    276.65056   -110384.36    3014.8325   -107369.53    298.26417    1981.8153    136287.19   -116064.74   -103430.46    163.35745 
  596000    635.71251    1495.2357    2716.5679    533.08946    275.77394   -110448.46    3045.9955   -107402.46     301.3472    2509.6876    136075.12   -116104.84   -102421.95    164.25688 
  597000    623.19989    1408.1973    2679.7256    542.09742    273.95793   -110561.77    2967.7724      -107594    293.60842    2005.9883    135964.82   -116088.95   -103616.31    164.54462 
  598000    630.40135     1524.243    2729.3854    538.80164    266.18356   -110426.98    3047.5405   -107379.44    301.50005    2117.5932    136073.69   -116115.99   -103177.08    163.96864 
  599000    621.89321    1483.3403     2718.188    540.61598    245.70783   -110453.14    2985.3918   -107467.74    295.35154    1775.0505    135925.54   -116062.88      -103949     164.0205 
  600000    609.93223    1477.6168    2711.8271    565.45273    270.07615   -110446.37    3086.1233   -107360.24    305.31714    2026.4988     135967.4   -116081.27   -103341.81    163.26877 
  600513    624.85749    1499.1679    2733.6857    578.60525    273.14233   -110374.56    3062.1149   -107312.45    302.94194    2346.4378    135571.78   -116084.02   -102673.13    164.07814 
Loop time of 1834.24 on 112 procs for 300000 steps with 3392 atoms

Performance: 14.131 ns/day, 1.698 hours/ns, 163.555 timesteps/s
91.4% CPU use with 112 MPI tasks x no OpenMP threads

MPI task timing breakdown:
Section |  min time  |  avg time  |  max time  |%varavg| %total
---------------------------------------------------------------
Pair    | 34.103     | 211.58     | 343.05     | 786.3 | 11.53
Bond    | 4.8754     | 33.47      | 55.916     | 324.1 |  1.82
Kspace  | 1164       | 1317.5     | 1524.2     | 365.2 | 71.83
Neigh   | 3.5412     | 3.5762     | 3.6365     |   1.7 |  0.19
Comm    | 23.875     | 30.044     | 45.146     |  99.4 |  1.64
Output  | 0.027167   | 0.027531   | 0.030769   |   0.2 |  0.00
Modify  | 151.71     | 220.27     | 240.45     | 159.1 | 12.01
Other   |            | 17.81      |            |       |  0.97

Nlocal:        30.2857 ave          54 max           0 min
Histogram: 13 15 4 2 12 3 7 22 23 11
Nghost:        1732.54 ave        1829 max        1580 min
Histogram: 11 12 8 1 0 0 10 32 25 13
Neighs:        4019.69 ave        7178 max           0 min
Histogram: 12 17 3 2 11 5 7 21 23 11

Total # of neighbors = 450205
Ave neighs/atom = 132.72553
Ave special neighs/atom = 6.7169811
Neighbor list builds = 6759
Dangerous builds = 0
write_data      data_3_150MPa.*
System init for write_data ...
PPPM initialization ...
  using 12-bit tables for long-range coulomb (../kspace.cpp:340)
  G vector (1/distance) = 0.27582229
  grid = 54 54 54
  stencil order = 5
  estimated absolute RMS force accuracy = 0.00028561826
  estimated relative force accuracy = 8.601309e-07
  using double precision FFTW3
  3d grid and FFT values/proc = 6615 1568
WARNING: Not all mixed pair coeffs generated from mixing. Use write_data with 'pair ij' option to store all pair coeffs. (../write_data.cpp:312)
unfix 1





#-------------------------------------------------------------------------------
shell "cat log.lammps | grep -v '[a-zA-Z]' | grep -v '^[[:space:]]*$' | grep -v '}' | grep -v '^-*$' | grep -v '^#*$' | grep -v '#-' | tail -n +4 > lmps.dat"
Total wall time: 1:01:11
