LAMMPS data file via write_data, version 29 Sep 2021, timestep = 101000

8384 atoms
13 atom types
9088 bonds
15 bond types
16896 angles
26 angle types
24576 dihedrals
31 dihedral types
1536 impropers
4 improper types

0.008787116898318459 51.694524883101 xlo xhi
0.004903017990852021 51.69841098200926 ylo yhi
-0.006788446946252691 51.710102446944674 zlo zhi
0.295935234221025 -0.5418710299489651 -0.2324417972614574 xy xz yz

Masses

1 65.38
2 1.0079
3 1.0079
4 12.0107
5 12.0107
6 12.0107
7 12.0107
8 12.0107
9 12.0107
10 12.0107
11 15.9994
12 15.9994
13 15.9994

Pair Coeffs # buck6d/coul/gauss/long

1 50784 2.62009 5731.71 39.9418 0.341054
2 3680 4 32.805 0.106908 0.977155
3 3680 4 32.805 0.106908 0.977155
4 10304 3.06122 457.18 4.52185 0.608002
5 10304 3.06122 457.18 4.52185 0.60801
6 10304 3.06122 457.18 4.52185 0.60801
7 10304 3.09278 429.894 3.91702 0.608002
8 4968 2.94118 280.225 7.91687 0.60801
9 4968 2.94118 280.225 7.91687 0.60801
10 4968 2.94118 280.225 7.91687 0.60801
11 10856 3.2967 308.776 1.60225 0.632701
12 10856 3.2967 308.776 1.60225 0.632728
13 10856 3.2967 308.776 1.60225 0.632701

Dihedral Coeffs # opls

1 0 0 0 0
2 0 0 0 0
3 0 0 0 0
4 0 6.04559 0 0
5 0 5.972 0 0
6 0 0 0 0
7 0 0 0 0
8 0 6.28154 0 0
9 0 5.972 0 0
10 0 5 0 0
11 0 0 0 0
12 0 1.902 0 0
13 0 1.902 0 0
14 0 5.11727 0 0
15 0 3.98217 0 0
16 0 3.66469 0 0
17 4.7638 2.75011 0.191432 0
18 0 3.012 0 0
19 0 0.076 0 0
20 0 0 0.037991 0
21 0 0 0.51445 0
22 0 0 0.343642 0
23 -1.70264 -0.327922 0.811155 0
24 0 0 0.302052 0
25 0 0 -0.052641 0
26 0 0 -0.052641 0
27 -0.370853 -0.236138 1.97012 0
28 0 0 0.010079 0
29 0.803729 -0.768357 1.29818 0
30 0 0 0.343076 0
31 0 0 0.870477 0

Improper Coeffs # inversion/harmonic

1 0 0
2 1.18775 0
3 0 0
4 13.5247 0

Atoms # full

88 1 8 -0.12 22.565541896975592 3.608290781995412 5.630119063409738 0 0 0
5035 5 3 0.06 24.785722615492052 8.196959766761791 4.642851453866561 0 0 0
4809 5 3 0.06 23.38994986134875 7.248748810829412 5.176959429455638 0 0 0
358 1 9 0.06939 6.023981884251392 12.795098512409881 4.228027059469901 0 0 0
311 1 3 0.06 7.1857820768629805 9.014447120370953 1.0604723100071503 0 0 0
1193 2 3 0.06 18.496432483457756 4.927908700648509 1.6683935040427418 0 0 1
231 1 9 0.06939 15.218609950047925 2.763610779344953 6.1315033113689115 0 0 0
5089 5 8 -0.12 24.45567595119177 8.247790070799386 6.792435870350847 0 0 0
4548 5 3 0.06 1.6028346088926222 5.294357683849139 3.0381741800967097 1 0 0
78 1 7 0.61 4.244328630414284 0.3589967800316344 0.7549657191710374 0 0 0
1019 1 10 -0.18 18.559017373574704 8.512158535072613 3.493180416127703 0 0 0
5023 5 3 0.06 23.765438771946933 9.140394584037926 6.748962950103789 0 0 0
4464 5 2 0.12 24.54121604983101 11.45247059831851 5.755014066170747 0 0 0
359 1 9 0.06939 22.54402989522823 7.708965121669532 1.0956941457810365 0 0 0
487 1 3 0.06 14.128963204910015 6.80597453355658 3.764333625347627 0 0 0
243 1 8 -0.12 14.543131398879796 4.757700536281895 4.740593479942563 0 0 0
1329 2 3 0.06 22.026580609995083 9.835405191336456 0.9794375799315843 0 0 1
302 1 3 0.06 21.854091688478366 5.55980096378184 5.441103531290626 0 0 0
151 1 3 0.06 19.302138811075803 5.835641388552715 0.44367848939905313 0 0 0
4268 5 6 -0.06326 24.541686176524173 0.6531618446926261 6.670393974105874 0 0 0
370 1 8 -0.12 4.888359474389641 12.562956850326728 6.508283597032976 0 0 0
4494 5 3 0.06 1.900705860373031 3.675985124572742 4.854393973962427 1 0 0
472 1 7 0.61 13.51304636215659 9.230503404446784 0.1117615764835597 0 0 0
269 1 2 0.12 2.63378394726425 8.012444349880063 0.3013039660923221 0 0 0
112 1 8 -0.12 22.234766194966056 4.927809932156958 6.245394711247519 0 0 0
44 1 3 0.06 5.283791570451767 6.026716966268293 2.389666920966042 0 0 0
1062 2 3 0.06 6.3139787311038615 5.321082084110496 0.024739310054283564 0 0 1
314 1 3 0.06 20.288019433039864 4.340072805739619 6.896244727499095 0 0 0
128 1 13 -0.72 25.35912544371828 0.9441858876835947 3.9215774512570203 0 0 0
163 1 3 0.06 17.223657232481894 6.794740594331023 0.9176090545357418 0 0 0
499 1 10 -0.18 14.979958164133134 6.117286133750305 4.054211268336184 0 0 0
293 1 3 0.06 22.47387503949981 6.759922444095606 0.6222413636507789 0 0 0
433 1 3 0.06 13.98549235576813 4.980133559909125 5.689626052118713 0 0 0
323 1 4 0.18 0.5483415025654099 8.096701880073569 0.45482100758314464 0 0 0
1140 2 3 0.06 17.040314846149805 2.697671345990327 0.6114645029088204 0 0 1
120 1 13 -0.72 23.139750468996578 0.6812695741559774 1.7142728696838896 0 0 0
378 1 12 -0.12613 23.879372335520586 8.044932558015308 0.686678561117406 0 0 0
396 1 1 1.42 14.57466570515594 11.664030902242898 1.3690055150732365 0 0 0
2668 3 3 0.06 8.254495159416718 0.8197061475207109 6.474175151095497 0 1 0
229 1 9 0.06939 17.159972031303415 5.810332301155412 0.29139224227109906 0 0 0
329 1 5 -0.12 1.7374798214493503 7.3775590687318795 0.2878421247405279 0 0 0
132 1 1 1.42 14.500058538388588 1.0218827892003368 1.5788479570181582 0 0 0
506 1 11 -1.78 13.466011850944978 12.783475227477902 0.348733754839545 0 0 0
275 1 3 0.06 20.66473697506718 8.73081521804313 1.0270331055536996 0 0 0
400 1 2 0.12 15.470195760505382 7.529934807824321 1.0279685657727764 0 0 0
327 1 5 -0.12 20.59404123721145 12.541022251813681 1.4640416972531192 0 0 0
447 1 3 0.06 19.079708424731912 8.449864187105778 4.445679313989135 0 0 0
391 1 13 -0.72 23.404823570241607 12.259485667882386 1.2647421556587557 0 0 0
368 1 10 -0.18 21.188850386716453 4.824939006773277 7.317302509141907 0 0 0
463 1 5 -0.12 13.802100157714426 11.710337091344112 6.196509621129952 0 0 0
113 1 11 -1.78 0.5334648079488833 0.14621880979655183 0.5000548271771733 0 0 0
287 1 3 0.06 22.61565094908527 7.580039891238474 2.180905164503367 0 0 0
514 1 13 -0.72 14.400680248931623 9.796146143189011 0.8203809840507522 0 0 0
417 1 3 0.06 19.627609251272588 11.3060532622041 3.867473531757666 0 0 0
28 1 3 0.06 22.466872397070997 2.221353110414391 7.335227749373063 0 0 0
100 1 9 0.06939 23.225937301237572 2.6886057850830065 6.598024559009925 0 0 0
342 1 7 0.61 0.4981451099615024 9.549957786233257 0.574448731303142 0 0 0
953 1 3 0.06 16.959219982457306 9.571804280440485 2.5311483730626696 0 0 0
117 1 12 -0.12613 2.907793307272872 5.154257006038485 0.436224438258696 0 0 0
4524 5 5 -0.12 25.232423037727013 12.189502509059993 6.255961466738667 0 0 0
207 1 6 -0.06326 13.4637259831802 1.1763438329857239 6.243627057702371 0 0 0
74 1 6 -0.06326 1.778406829627615 5.968978340846849 0.37738200813395417 0 0 0
62 1 4 0.18 0.568414563850999 5.283946367850985 0.5540042573538813 0 0 0
435 1 3 0.06 16.455275800662193 8.95789371702704 3.9919941827038166 0 0 0
1229 2 3 0.06 6.714229312927458 3.21536399728847 2.2503147955477245 0 0 1
46 1 3 0.06 23.164721646586663 5.360106259476571 6.592788632738101 0 0 0
2286 3 4 0.18 8.450625941943677 0.23779381772094704 0.9525641883727461 0 1 0
68 1 5 -0.12 25.1027400742962 5.976828998436437 1.3716546243348353 0 0 0
519 1 13 -0.72 16.445131851375354 12.19039697475534 0.966911166292961 0 0 0
4238 5 3 0.06 2.5475009171987226 5.312673983574233 5.413593808614373 1 0 0
250 1 12 -0.12613 14.111091789894653 2.120374236319404 5.532828154625369 0 0 0
2305 3 7 0.61 9.917237582677705 0.0772075046886931 0.8918340334802937 0 1 0
1158 2 8 -0.12 5.464131788252291 5.002758652560603 2.008228763437828 0 0 1
255 1 13 -0.72 14.5748834308626 2.8653549222534704 0.9129683945434438 0 0 0
165 1 3 0.06 16.0554940474139 2.1436466235744462 6.457889772707339 0 0 0
266 1 1 1.42 25.26807187329775 11.870078048012651 1.6655633388581326 0 0 0
16 1 3 0.06 21.634798141712515 3.128433344358863 5.21196831985833 0 0 0
4821 5 10 -0.18 24.4498808325807 7.533429086027017 5.437581035170968 0 0 0
1104 2 3 0.06 7.624212059526069 4.730025774620964 2.148149990220215 0 0 1
147 1 3 0.06 16.103491420839376 3.39814623194795 4.113612417152029 0 0 0
1283 2 10 -0.18 6.703888274953622 4.250035672265002 2.591046784959972 0 0 1
2308 3 7 0.61 13.00499723455427 0.022031790842574513 3.97375382608955 0 1 0
60 1 4 0.18 5.6852373588861695 0.5097795905813065 0.9617373693080338 0 0 0
254 1 13 -0.72 16.312606814350158 0.26310555031321475 1.5868155400191755 0 0 0
2722 3 10 -0.18 7.908675422625905 1.2668844054307036 5.475449861527221 0 1 0
448 1 3 0.06 8.624594685758348 9.749104265519057 1.6147356786821965 0 0 0
524 1 13 -0.72 14.264064087287085 11.99927733485815 3.350751045959218 0 0 0
822 1 3 0.06 5.824474577305989 12.097184504770524 6.7682199964841026 0 0 0
130 1 13 -0.72 25.285333260392935 3.1555022134258004 1.7685870266029458 0 0 0
501 1 8 -0.12 17.36751087842121 9.417588891534031 3.522937701386126 0 0 0
248 1 12 -0.12613 15.961196089698975 5.023335069297171 0.5963215185496457 0 0 0
2342 3 12 -0.12613 18.59140700187191 0.1510855728528084 2.988975363292974 0 1 0
205 1 6 -0.06326 14.784483399661289 5.6321655719837 0.4219487468812941 0 0 0
465 1 6 -0.06326 19.20394799691269 12.49552641758685 1.387428051384097 0 0 0
4208 5 3 0.06 1.2268628072913772 4.246497610223128 7.317217455399912 1 0 0
384 1 13 -0.72 25.394901808012968 12.26532031733219 3.5287092223221737 0 0 0
2150 3 3 0.06 8.29159734296608 0.6417063403982048 4.666557273316434 0 1 0
256 1 13 -0.72 13.497193398951962 1.0135089234661416 3.350843098162714 0 0 0
4226 5 3 0.06 24.034726720178416 3.170995644939836 7.216603874070514 0 0 0
217 1 8 -0.12 18.425095603840596 5.080799187312599 0.6040508471209773 0 0 0
508 1 12 -0.12613 18.557815944816475 11.630995460769961 2.204832144990122 0 0 0
346 1 8 -0.12 4.77120118579273 12.435639067899194 5.012045211405547 0 0 0
59 1 4 0.18 21.17350349033318 0.433721258574256 0.5297965401115575 0 0 0
2138 3 3 0.06 6.1164360100132 1.8073357954785154 4.527053995813359 0 1 0
219 1 8 -0.12 15.683000889316368 3.828925682501213 5.080109849482537 0 0 0
177 1 3 0.06 13.878071384718055 4.262134332565131 4.040707701168165 0 0 0
2291 3 4 0.18 12.794713967916607 0.20634374350293755 5.451583732873198 0 1 0
1217 2 3 0.06 4.548780085212954 4.403839846045827 2.2598932870126047 0 0 1
193 1 4 0.18 13.660747096561327 4.919131921843555 0.05159740060435941 0 0 0
80 1 7 0.61 0.41105216877973666 3.777110278861723 0.5505182351723624 0 0 0
65 1 5 -0.12 20.489222846971035 0.6582015842453687 1.716856800171093 0 0 0
460 1 5 -0.12 14.660759643883152 7.0230434483375594 0.5857317715316662 0 0 0
4304 5 8 -0.12 1.55088068095771 4.737880421883658 5.178439907916493 1 0 0
8 1 2 0.12 24.224262328585873 5.3667043365487395 1.434589684180458 0 0 0
335 1 6 -0.06326 25.010043135488655 7.295951568541999 0.9684029346066706 0 0 0
339 1 7 0.61 4.17921448822518 12.54889514238158 0.669318635289095 0 0 0
2204 3 8 -0.12 6.357184483410952 1.3064963035340824 5.414760282910268 0 1 0
267 1 2 0.12 20.963348214905004 12.0408247989691 2.314902260690447 0 0 0
4311 5 12 -0.12613 23.76226861639283 1.5179454667493681 5.908927909304763 0 0 0
950 1 3 0.06 12.799102009029667 9.372319799744549 6.629264664508555 0 0 0
2 1 1 1.42 25.031453710763277 1.1170267960497244 2.0044453853794835 0 0 0
189 1 3 0.06 15.564565619789752 6.068573641888344 3.194683941075221 0 0 0
347 1 8 -0.12 21.688886390446886 8.869331354448677 0.6122286958582045 0 0 0
403 1 2 0.12 14.205705913038882 10.915123191965094 5.616554023202991 0 0 0
2710 3 3 0.06 8.426313970685905 2.2612031351626363 5.442885038872095 0 1 0
445 1 3 0.06 15.587275013963996 6.643293090353806 4.805697555590556 0 0 0
274 1 3 0.06 4.549905687290854 11.418564784989975 4.740298983968606 0 0 0
405 1 3 0.06 16.59602146337437 11.307834158084312 4.134431614338655 0 0 0
4560 5 10 -0.18 0.8697094181654511 5.358967647544243 3.882760135116 1 0 0
86 1 8 -0.12 5.3737966911084065 5.068289440299457 0.48213940201523336 0 0 0
377 1 12 -0.12613 5.598034379181528 12.340229796967757 2.9157345000146124 0 0 0
1007 1 3 0.06 18.215263500586023 7.54738375474857 3.1213523631322064 0 0 0
1086 2 3 0.06 19.58279819150251 3.2828542633967674 0.22174864065637 0 0 1
153 1 3 0.06 16.431940965413453 4.402790392475249 5.742898504967646 0 0 0
1271 2 3 0.06 6.795557780391028 4.433950605034329 3.7071913562828427 0 0 1
965 1 3 0.06 19.20839186033445 9.066629939709355 2.795732521258589 0 0 0
489 1 9 0.06939 18.614897460517078 11.673295600892306 3.646958507160532 0 0 0
477 1 8 -0.12 17.577594854006662 10.75789881321474 4.223721132949573 0 0 0
20 1 3 0.06 5.313064860860007 4.049617496493824 0.1743748565566743 0 0 0
32 1 3 0.06 4.1218819583336765 6.832042162922176 0.20349764917375085 0 0 0
411 1 3 0.06 17.770438125466097 10.661597602304726 5.338515993625741 0 0 0
4214 5 3 0.06 23.254670463277346 3.79476324907527 4.755502526850807 0 0 0
944 1 3 0.06 14.626737462292546 9.14425474399345 6.822289233653066 0 0 0
203 1 6 -0.06326 19.207132554007895 0.15921076087260733 1.7851103660299692 0 0 0
159 1 3 0.06 14.851075783402914 3.258512199425641 7.057767947222549 0 0 0
5 1 2 0.12 21.097627166153934 0.8812417483682918 2.708183102703675 0 0 0
77 1 7 0.61 22.63327994871983 0.24353758701409078 0.6031970494154263 0 0 0
82 1 7 0.61 0.5462182628612976 0.17241998304381143 4.1889073774432655 0 0 0
423 1 3 0.06 18.596634825235824 12.764299853093402 4.016842113506515 0 0 0
353 1 3 0.06 8.694813134003361 8.001261590498956 1.315757502254159 0 0 0
4280 5 8 -0.12 0.652952662427636 4.503174226406671 6.46313933515413 1 0 0
389 1 13 -0.72 25.565169466729248 10.04066681001736 1.4358402215780521 0 0 0
365 1 10 -0.18 8.26523207809684 8.961938610984005 0.9041947781908968 0 0 0
64 1 4 0.18 0.44053847827247705 0.11634692162959234 5.739060016273164 0 0 0
4250 5 3 0.06 0.459476464591433 6.3664590659518625 4.112193281048712 1 0 0
322 1 4 0.18 5.688878799131608 12.318001884716633 0.5621246943531997 0 0 0
2656 3 3 0.06 5.842544811173931 1.951377488749014 6.1788622449482995 0 1 0
454 1 4 0.18 13.498417126824206 7.68203255657338 0.2036038776273105 0 0 0
286 1 3 0.06 6.876334702723961 12.295957104928716 4.602706011680255 0 0 0
334 1 6 -0.06326 6.403813823459883 12.537681104960145 1.735697091696938 0 0 0
304 1 3 0.06 4.15400815235955 11.965482797220288 7.113853129730401 0 0 0
1305 2 13 -0.72 10.487197188893134 0.828843950756213 0.07952615937935077 0 0 1
22 1 3 0.06 0.31169348872736113 5.504318800882294 6.667094184625124 0 0 0
332 1 5 -0.12 0.12143727507927264 11.870047122955924 6.26733914791775 0 0 0
4767 5 3 0.06 25.047319679797383 6.651642973986622 5.492891162906615 0 0 0
76 1 6 -0.06326 0.009599697916151034 1.2675183086733381 6.451399907826748 0 0 0
210 1 7 0.61 13.75383060392434 3.438410690842997 0.15238814799555017 0 0 0
452 1 4 0.18 8.407770722192991 12.88207259584256 0.4265865248880653 0 0 0
458 1 5 -0.12 7.772723702793496 12.905685829520198 1.6673777034232966 0 0 0
839 1 3 0.06 22.174186009972008 12.659926629748641 7.2031718160732785 0 0 0
418 1 3 0.06 9.770663269456707 6.263136608534411 0.020571986268338376 0 0 0
610 1 8 -0.12 3.036433733547911 4.5042937546901465 11.80613273849963 0 0 0
166 1 3 0.06 9.324993364276185 2.9422241958796755 8.71548207488678 0 0 0
1008 1 3 0.06 22.520740900504943 10.569027625890099 10.00748691689638 0 0 0
527 1 1 1.42 24.6381621726436 1.0497380589770753 12.711789636467552 0 0 0
805 1 3 0.06 20.931515473224568 7.859781029004144 12.981084670735626 0 0 0
661 1 2 0.12 17.99079640958926 0.7758763616920483 11.739963156124832 0 0 0
596 1 6 -0.06326 5.578315858244308 0.836973619252067 14.642950142406692 0 0 0
699 1 3 0.06 18.212074049133957 5.781482204037817 13.413060391897483 0 0 0
638 1 12 -0.12613 20.642633517995048 0.5696025773728952 11.449042774953462 0 0 0
2828 3 7 0.61 8.966298076881525 0.35355105597422737 13.31905391009923 0 1 0
992 1 6 -0.06326 13.635877391915892 11.602995723275638 7.549311998598941 0 0 0
5096 5 12 -0.12613 24.972387549368534 10.835255816410715 8.229242229816998 0 0 0
532 1 2 0.12 23.937027924373716 4.935008626962349 12.949894025739528 0 0 0
829 1 3 0.06 22.115982771640745 9.93353917588458 12.190209009444724 0 0 0
976 1 4 0.18 7.966052224638071 12.814606046709294 13.595840758350452 0 0 0
938 1 3 0.06 14.145654368220136 7.650874692444204 8.59814474152969 0 0 0
648 1 13 -0.72 0.5827581747267269 2.875077798627274 14.372637553883994 0 0 0
902 1 12 -0.12613 23.604690327101995 7.565438344739069 12.81913767843019 0 0 0
666 1 3 0.06 8.580791350107297 2.508287956114603 11.628127820127869 0 0 0
655 1 13 -0.72 25.106771359551452 1.0103995312449658 10.818656205427276 0 0 0
759 1 10 -0.18 3.280336148435686 2.4795819413032194 10.200531183768389 0 0 0
923 1 2 0.12 18.300730704660115 11.948972598643726 11.506913794167238 0 0 0
762 1 8 -0.12 9.111126990085129 3.331367105073085 9.70616080887168 0 0 0
717 1 4 0.18 12.973150549056554 4.795134876640779 13.524600064565258 0 0 0
580 1 3 0.06 3.7588978439137213 3.1222090831353992 9.436255710461564 0 0 0
2816 3 5 -0.12 6.9178958175706295 1.1255078688856333 14.410343600396127 0 1 0
772 1 12 -0.12613 15.093418180130495 4.856121204354846 12.307329652447061 0 0 0
910 1 13 -0.72 24.95592584722472 9.82982066516187 12.942118701677895 0 0 0
650 1 13 -0.72 22.660329952272974 0.5186575134488238 12.792295682991226 0 0 0
1046 1 13 -0.72 9.958243936683424 11.868700813638373 14.190317097467105 0 0 0
1047 1 13 -0.72 13.666650193202527 9.615772449433464 12.754904833624007 0 0 0
584 1 4 0.18 4.918095007648675 0.22745239064224065 13.568118536984437 0 0 0
711 1 3 0.06 19.666992725116668 3.909785397908961 13.88935143990242 0 0 0
708 1 3 0.06 9.924405196294165 4.698513392612828 11.181029202584343 0 0 0
2768 3 3 0.06 9.682597833273459 1.4989615135013459 10.672672978589214 0 1 0
777 1 13 -0.72 13.573135473485516 0.4716511837402258 10.292838735564544 0 0 0
980 1 4 0.18 13.205826912703493 12.741990174415523 8.251521416939436 0 0 0
562 1 3 0.06 17.34492846911197 4.1713652486279695 13.613502345440118 0 0 0
657 1 1 1.42 11.49708862143929 0.843559426068462 14.591646250933795 0 0 0
5053 5 6 -0.06326 25.42344286325624 11.927807622002632 7.631324434854859 0 0 0
598 1 6 -0.06326 1.0295441361352498 5.6229972128412875 13.823904465444498 0 0 0
997 1 7 0.61 12.97991489406734 9.057331563574776 13.713130371549063 0 0 0
932 1 3 0.06 12.673198459342785 7.40980828424115 7.772873529904116 0 0 0
765 1 8 -0.12 18.024716377500734 4.752593625581423 12.950749517332136 0 0 0
982 1 5 -0.12 7.2534350084048835 12.074041043487478 14.56324091568844 0 0 0
592 1 5 -0.12 24.766593433793073 5.554258072267593 13.379086253788477 0 0 0
645 1 13 -0.72 24.817072986652565 2.9471414152081 13.11322815570402 0 0 0
544 1 3 0.06 1.961525519637085 4.695319790586544 11.584596455238495 0 0 0
748 1 3 0.06 10.239181977255038 9.17825033922333 10.008908326039696 0 0 0
1028 1 8 -0.12 12.219309229714927 8.567853820866619 9.498168618311228 0 0 0
659 1 1 1.42 13.780191661515858 0.7973651101672092 12.266288740018526 0 0 0
760 1 10 -0.18 10.74148234035767 8.877748733554247 9.099943290044134 0 0 0
724 1 5 -0.12 13.36790892671751 1.0281557858405934 7.598416159353826 0 0 0
664 1 2 0.12 13.66994350015358 1.887236234296058 8.257327060306785 0 0 0
994 1 7 0.61 16.673156452822838 12.385346857254051 13.535766714706458 0 0 0
962 1 3 0.06 12.536068314002339 9.330375845512357 10.198815376791607 0 0 0
911 1 13 -0.72 25.587271443875032 11.840627857303733 10.422840436331354 0 0 0
895 1 8 -0.12 21.46278513629752 9.340900642823442 11.511023615889629 0 0 0
811 1 3 0.06 22.341631808390243 6.0079635986442295 12.050018986506354 0 0 0
705 1 3 0.06 2.221692726359062 2.39991788440084 10.012838052571851 0 0 0
687 1 3 0.06 16.2280515367449 6.68129764287604 11.968930836132277 0 0 0
736 1 7 0.61 12.589498089498518 0.0025279035709382253 9.690475897716746 0 0 0
815 1 3 0.06 20.382498441358653 12.792597887062655 9.08050290677287 0 0 0
859 1 6 -0.06326 24.712563668011185 6.955976736503482 13.203233840424007 0 0 0
857 1 6 -0.06326 20.2658039624053 12.561474117831615 12.311508767207965 0 0 0
785 1 13 -0.72 12.201688025468066 2.801998865508583 14.442784386581112 0 0 0
616 1 3 0.06 19.294843906778603 2.947147076649976 12.501820783083701 0 0 0
912 1 13 -0.72 3.066186926164037 11.503110555371983 13.85997993921296 0 0 0
999 1 7 0.61 13.180580779733221 12.68475383490929 9.790242142558165 0 0 0
799 1 3 0.06 20.58286508013105 7.325989829173669 11.285593857779421 0 0 0
1030 1 11 -1.78 13.136194507809353 12.478192542649984 13.376742569681433 0 0 0
547 1 3 0.06 20.078191196791277 1.1548738581805427 9.772789348297396 0 0 0
593 1 5 -0.12 24.640107970186047 0.7695884042035848 8.077892860134497 0 0 0
909 1 13 -0.72 23.054547336759796 12.416149873252019 12.467991363903518 0 0 0
729 1 6 -0.06326 14.046977080376138 5.491932933055164 13.0030682868203 0 0 0
634 1 8 -0.12 3.5059490104176736 3.0364049386448104 11.627276987029814 0 0 0
735 1 7 0.61 12.935322404958383 3.322151706209282 13.570808493292306 0 0 0
538 1 3 0.06 3.458707325721543 5.111824300010021 11.009896631890031 0 0 0
2637 3 3 0.06 22.137193326781784 0.3661391243120647 9.095924701291704 0 1 0
899 1 11 -1.78 0.13412248025248544 12.76894318366053 13.48125520269111 0 0 0
693 1 3 0.06 2.8902887462153037 2.4575444908669617 12.341942201580267 0 0 0
675 1 3 0.06 17.294727477574412 3.9509464630111886 11.055686636441802 0 0 0
1035 1 12 -0.12613 13.783851543996647 10.443581428677183 8.243721785876751 0 0 0
990 1 6 -0.06326 12.059617706919024 6.845115498101394 14.495369890849323 0 0 0
58 1 3 0.06 21.572525121544636 4.109780124963106 8.09730841162816 0 0 0
533 1 2 0.12 24.221419055102317 1.6551858680304925 8.562888519707492 0 0 0
919 1 1 1.42 14.249300957715866 11.428182625213251 12.220700373360332 0 0 0
924 1 2 0.12 14.923523619900497 7.447300369892241 13.063415423725216 0 0 0
178 1 3 0.06 11.212603888075703 3.6727034331081727 10.399492058833689 0 0 0
883 1 9 0.06939 22.6122494853538 7.023136625882036 11.808372403493053 0 0 0
782 1 13 -0.72 13.614979717643985 2.6608921887168426 12.76497811749012 0 0 0
865 1 7 0.61 -0.050688391933437965 9.149610411998108 13.57749239821471 0 0 0
556 1 3 0.06 4.175355051498336 4.699810495403953 13.613971730856274 0 0 0
864 1 7 0.61 3.727674498571993 12.40127618435839 13.206877594779321 0 0 0
641 1 12 -0.12613 2.2065859829308185 4.928576261326953 13.890015580382595 0 0 0
550 1 3 0.06 3.58748951494017 6.219180884269299 12.927465167829386 0 0 0
356 1 3 0.06 20.9328231959964 5.740511775820211 7.799553080538777 0 0 0
669 1 3 0.06 18.141794393790494 5.547649818812227 10.902752210132267 0 0 0
574 1 3 0.06 20.084480771178324 4.516151590374125 12.28752220877825 0 0 0
5005 5 3 0.06 25.667986791225193 9.155024603967405 9.275366707481677 0 0 0
817 1 3 0.06 23.078712356250687 7.0838606599838 10.820924944951322 0 0 0
995 1 7 0.61 9.466901447963188 12.74706231440503 13.502762436062202 0 0 0
741 1 8 -0.12 17.437171082613162 4.9649320682059095 11.534015688637513 0 0 0
1037 1 13 -0.72 16.157631024912547 11.659580304646935 12.594812671665096 0 0 0
628 1 10 -0.18 19.358397697370567 3.9867109954807765 12.860143191330105 0 0 0
694 1 3 0.06 12.054561323347606 7.626527913565583 10.085586061680226 0 0 0
681 1 3 0.06 15.847640375813315 5.815637526352986 10.55095289758575 0 0 0
753 1 9 0.06939 16.105945837729937 5.640070455816013 11.582387309539136 0 0 0
984 1 5 -0.12 14.091260538840654 6.905018426012958 13.3039865498279 0 0 0
568 1 3 0.06 4.552043349555666 2.9663327782841056 11.918321720405205 0 0 0
1020 1 10 -0.18 22.07498196816563 9.511294388664714 10.123383812541595 0 0 0
978 1 4 0.18 13.11004584817604 7.562901539999333 13.977170083738079 0 0 0
622 1 9 0.06939 3.327590066859763 5.129278888660178 13.098041533164109 0 0 0
900 1 12 -0.12613 20.95311962244985 12.363400404374048 11.083126901535984 0 0 0
2686 3 5 -0.12 5.563870403927775 0.00973211986927127 12.317644742851321 0 1 0
1004 1 8 -0.12 13.199635258477953 8.171560510987973 8.351946056520529 0 0 0
787 1 1 1.42 24.97543269122095 11.796772712093789 12.373382136118442 0 0 0
747 1 3 0.06 3.8318838092351672 1.5990123320528449 10.012250042372477 0 0 0
1045 1 13 -0.72 13.911828960332125 11.804849353467938 10.339961781505936 0 0 0
954 1 3 0.06 20.446620917538517 9.707615732050945 11.6800839811199 0 0 0
858 1 6 -0.06326 5.88435494103085 11.92075233854996 14.474214901554694 0 0 0
983 1 5 -0.12 18.808341404780748 12.315890713368654 12.396106832014537 0 0 0
793 1 2 0.12 1.948500094831611 7.599346146971014 13.97533479038914 0 0 0
974 1 3 0.06 10.52658478029293 9.678478217882118 8.261352940857927 0 0 0
841 1 3 0.06 22.98057306574503 8.854266409822998 10.009938246993661 0 0 0
977 1 4 0.18 18.146042734009065 12.4514374559832 13.650137006531187 0 0 0
853 1 5 -0.12 1.0338102095214272 7.021649758449461 13.917388849171841 0 0 0
966 1 3 0.06 21.33505987840473 9.398495533189203 9.243143612568442 0 0 0
647 1 13 -0.72 2.679445491872187 0.5609437626498625 14.522201674772013 0 0 0
775 1 13 -0.72 9.547408250987479 0.7615617297785169 14.385187589647872 0 0 0
595 1 6 -0.06326 19.856937888584753 0.19467577211140297 12.491756061409424 0 0 0
871 1 8 -0.12 21.322437178765764 7.870945418321729 11.920889193921502 0 0 0
525 1 1 1.42 0.8170627456687274 0.9646056555972559 14.673046625411406 0 0 0
738 1 8 -0.12 8.855533290027523 2.154805338135176 10.623678121666796 0 0 0
232 1 10 -0.18 10.292923441940967 4.251111585101084 10.219028083573239 0 0 0
723 1 5 -0.12 12.019152038185684 5.433872611152694 14.319131685959897 0 0 0
846 1 4 0.18 5.173934013726746 12.55916226505261 13.420162060277951 0 0 0
2780 3 3 0.06 7.9138187152629955 0.9311873407086919 9.08840715136312 0 1 0
2822 3 6 -0.06326 6.838382116492222 0.4344091647718112 12.164739208779283 0 1 0
220 1 3 0.06 10.310804515912785 5.0520852560544975 9.549897348005072 0 0 0
810 1 3 0.06 4.836969878780472 9.564495401591916 14.654917287850218 0 0 0
696 1 3 0.06 8.264338428720613 3.9730221960957843 9.519841167681456 0 0 0
4755 5 3 0.06 23.99024924548955 7.681524058129957 7.65141875516209 0 0 0
784 1 13 -0.72 15.654770005429238 0.47751206368474086 12.732883193452748 0 0 0
4798 5 7 0.61 25.698398635133458 0.042361341299406274 10.244530312168076 0 0 0
789 1 1 1.42 1.2439084597717665 11.609386442054154 14.515258460083286 0 0 0
706 1 3 0.06 10.204194106272066 7.961657817439954 8.789455539691664 0 0 0
2865 3 12 -0.12613 7.322306635314659 0.18453500151717256 10.870401528482795 0 1 0
921 1 1 1.42 11.875793065334305 11.54010127225996 14.588271057291845 0 0 0
678 1 3 0.06 6.812292855124149 2.0523296885553575 9.98362234820415 0 0 0
718 1 4 0.18 12.622994520450513 0.04809047389690703 8.177794107939933 0 0 0
2810 3 4 0.18 7.568295361931508 0.8065090460374802 13.222642710015498 0 1 0
750 1 9 0.06939 7.630815419204052 1.3629622142850575 10.092599573078413 0 0 0
721 1 5 -0.12 18.461726870566554 0.22054136252972262 12.537396127787092 0 0 0
601 1 7 0.61 3.3374094634921794 0.04771263123352893 13.624050005813018 0 0 0
619 1 9 0.06939 20.30957602373038 0.14435955105129616 10.158639019764603 0 0 0
907 1 13 -0.72 0.805803903337859 9.733204680854978 14.291045763146046 0 0 0
1044 1 13 -0.72 12.218380742198804 9.638475808595151 14.532245542096998 0 0 0
4795 5 7 0.61 25.70639681836078 3.3816714862190573 13.892831647332576 0 0 0
663 1 2 0.12 11.246991151348368 4.711000546206408 14.670082530111523 0 0 0
1016 1 9 0.06939 13.622565065046448 9.27384521431488 7.400059406504537 0 0 0
649 1 13 -0.72 0.5948360702159857 0.6563762706131766 16.57511260250865 0 0 0
352 1 3 0.06 2.254449280327651 7.779995991559932 18.342277034305745 0 0 0
2662 3 3 0.06 3.134278699756248 3.2542079890985582 18.690706906869735 0 1 0
546 1 3 0.06 0.5701258537481044 4.353541150476583 17.399908976166746 0 0 0
422 1 3 0.06 8.061982847222055 11.29447859848077 22.150946500598664 0 0 0
554 1 3 0.06 5.1867391833322705 2.9617502326815033 15.181927397687499 0 0 0
828 1 3 0.06 3.876211937902651 7.5738552908045635 15.77317428613266 0 0 0
438 1 3 0.06 14.34339778229024 7.973924527403704 22.01997940724191 0 0 0
4511 5 3 0.06 25.45545759111918 6.629423168856596 18.960266698169864 0 0 0
140 1 2 0.12 11.990296783380561 1.8958390145068384 21.076026647830286 0 0 0
948 1 3 0.06 9.327762767886675 6.972407135985446 15.014522349200258 0 0 0
107 1 8 -0.12 21.02339739058286 1.510869813643564 21.56913808952 0 0 0
200 1 5 -0.12 12.232225570436682 0.9535056416256387 20.600294721103097 0 0 0
2716 3 9 0.06939 5.282641504699013 2.5628995806959955 16.155590073081953 0 1 0
1496 2 3 0.06 8.774976834109347 8.892333052274003 20.96562534289915 0 0 0
4231 5 3 0.06 25.409848169299398 6.59550280163022 21.446523387383657 0 0 0
349 1 8 -0.12 3.2277966928951964 9.058938850260313 21.613858974816107 0 0 0
414 1 3 0.06 11.394798513384629 7.950790253983613 21.223357856124355 0 0 0
987 1 5 -0.12 12.187921691494319 11.897503598953026 19.017802672756666 0 0 0
2674 3 3 0.06 5.4925658945545335 2.9345881300029517 19.536759577248596 0 1 0
450 1 3 0.06 13.5634587529123 5.722654757511228 21.48292641503619 0 0 0
880 1 3 0.06 23.75857375382095 4.957276612016009 15.542414524352758 0 0 0
456 1 4 0.18 13.031853949655101 12.717182518136196 21.143880882694326 0 0 0
1011 1 3 0.06 17.10652917382751 3.923088253467957 16.826249589667825 0 0 0
2632 3 3 0.06 3.242555351675634 3.4576480428107823 16.32005513659686 0 1 0
713 1 3 0.06 15.81432309838447 2.7306420468542973 16.404993505010758 0 0 0
2317 3 3 0.06 15.980461193099353 0.20170166715961757 19.503975008140703 0 1 0
796 1 2 0.12 1.7891478090720296 11.299095638985392 18.690360729400176 0 0 0
816 1 3 0.06 6.036891398974603 9.531333910165644 15.906062044814597 0 0 0
882 1 9 0.06939 5.066893620809312 9.971603485820758 15.61047328520272 0 0 0
170 1 3 0.06 14.001923631390678 8.551821862304058 20.36086974900059 0 0 0
540 1 3 0.06 22.994324812601022 3.9210480883893633 18.996195664175545 0 0 0
894 1 8 -0.12 3.783158047520406 8.090155238086979 16.7226492727943 0 0 0
868 1 7 0.61 0.5039642934064799 12.833789910682924 16.997612507744076 0 0 0
441 1 3 0.06 18.434951450467903 11.101951424145613 19.18029859691234 0 0 0
826 1 3 0.06 22.43505876204189 3.1094073413116186 16.63055360611784 0 0 0
495 1 10 -0.18 17.378608516034014 11.464416023693028 19.47758978591257 0 0 0
917 1 13 -0.72 1.4596362880475493 12.248227351172064 16.355465462890038 0 0 0
643 1 12 -0.12613 0.13612298084464078 2.0425414953260397 18.607551590069388 0 0 0
959 1 3 0.06 15.703685041641162 12.63501187831736 18.981055832960525 0 0 0
468 1 6 -0.06326 12.36533317380205 11.729773996515423 20.372603936380813 0 0 0