LAMMPS data file via write_data, version 29 Sep 2021, timestep = 601000

8384 atoms
13 atom types
9088 bonds
15 bond types
16896 angles
26 angle types
24576 dihedrals
31 dihedral types
1536 impropers
4 improper types

3.4591187550799667 48.24419324491662 xlo xhi
2.187939473413195 49.51537452658318 ylo yhi
3.4559991467872706 48.24731485321182 zlo zhi
-3.6358461660843204 -8.832378582522212 -10.218517826059555 xy xz yz

Masses

1 65.38
2 1.0079
3 1.0079
4 12.0107
5 12.0107
6 12.0107
7 12.0107
8 12.0107
9 12.0107
10 12.0107
11 15.9994
12 15.9994
13 15.9994

Pair Coeffs # buck6d/coul/gauss/long

1 50784 2.62009 5731.71 39.9418 0.341054
2 3680 4 32.805 0.106908 0.977155
3 3680 4 32.805 0.106908 0.977155
4 10304 3.06122 457.18 4.52185 0.608002
5 10304 3.06122 457.18 4.52185 0.60801
6 10304 3.06122 457.18 4.52185 0.60801
7 10304 3.09278 429.894 3.91702 0.608002
8 4968 2.94118 280.225 7.91687 0.60801
9 4968 2.94118 280.225 7.91687 0.60801
10 4968 2.94118 280.225 7.91687 0.60801
11 10856 3.2967 308.776 1.60225 0.632701
12 10856 3.2967 308.776 1.60225 0.632728
13 10856 3.2967 308.776 1.60225 0.632701

Dihedral Coeffs # opls

1 0 0 0 0
2 0 0 0 0
3 0 0 0 0
4 0 6.04559 0 0
5 0 5.972 0 0
6 0 0 0 0
7 0 0 0 0
8 0 6.28154 0 0
9 0 5.972 0 0
10 0 5 0 0
11 0 0 0 0
12 0 1.902 0 0
13 0 1.902 0 0
14 0 5.11727 0 0
15 0 3.98217 0 0
16 0 3.66469 0 0
17 4.7638 2.75011 0.191432 0
18 0 3.012 0 0
19 0 0.076 0 0
20 0 0 0.037991 0
21 0 0 0.51445 0
22 0 0 0.343642 0
23 -1.70264 -0.327922 0.811155 0
24 0 0 0.302052 0
25 0 0 -0.052641 0
26 0 0 -0.052641 0
27 -0.370853 -0.236138 1.97012 0
28 0 0 0.010079 0
29 0.803729 -0.768357 1.29818 0
30 0 0 0.343076 0
31 0 0 0.870477 0

Improper Coeffs # inversion/harmonic

1 0 0
2 1.18775 0
3 0 0
4 13.5247 0

Atoms # full

4563 5 8 -0.12 6.85636210591119 5.202251218720612 6.6562759848637585 1 0 0
293 1 3 0.06 22.142511322873286 10.779146017718526 6.639486120804179 0 0 0
478 1 8 -0.12 10.993802730591316 11.040342480878978 4.747156941204125 0 0 0
254 1 13 -0.72 16.83241122929671 3.3631083270040727 6.76042552724293 0 0 0
932 1 3 0.06 12.559826045421193 9.82953130291219 9.153789202771737 0 0 0
252 1 13 -0.72 12.905647803480873 6.554516347740709 6.740963364328327 0 0 0
4509 5 3 0.06 5.852848607886566 4.908635739038548 8.471016943817641 1 0 0
454 1 4 0.18 15.394393219596243 10.440459530231745 5.0557841556507945 0 0 0
2305 3 7 0.61 10.3173946561439 2.9794941562675357 6.608764847916331 0 1 0
496 1 10 -0.18 20.02536201042283 13.708966802321635 4.329427813280251 0 0 0
828 1 3 0.06 6.102938946876159 10.726286508058672 8.84798059377138 0 0 0
2340 3 11 -1.78 13.579113263569727 3.2951220688605116 6.608297529032599 0 1 0
1305 2 13 -0.72 10.572994462956157 3.994886885008038 5.936214202558235 0 0 1
430 1 3 0.06 20.75551148593541 12.934180121162047 6.247558640568231 0 0 0
1152 2 10 -0.18 20.242585427848983 6.934196939164604 6.063724727036108 0 0 1
4272 5 7 0.61 24.26893511695872 5.220049653567594 5.920773816706493 0 0 0
302 1 3 0.06 19.95338180989722 4.696765399213751 9.78980168533814 0 0 0
1250 2 6 -0.06326 8.89383439995472 2.23568881994591 4.745191744721323 0 0 1
2 1 1 1.42 23.964837209467966 2.3995109332166518 6.6329709530430705 0 0 0
4576 5 13 -0.72 5.176151348317523 9.989240850875902 4.466487647670029 1 0 0
4688 5 10 -0.18 5.826169073051947 5.699216884471367 7.735459433313339 1 0 0
1098 2 3 0.06 19.5888016927353 7.218050848954366 5.27783745971716 0 0 1
3277 4 1 1.42 14.243033964905141 2.5485652985275697 4.985122365275309 0 1 1
128 1 13 -0.72 24.418286897636484 1.9579922166515464 8.456744903796174 0 0 0
2349 3 13 -0.72 13.320175860277566 2.194371577597731 9.3916510309497 0 1 0
298 1 3 0.06 7.251200143765873 11.657351412035865 7.8467931803152275 0 0 0
1310 2 13 -0.72 12.902382270605706 5.226827480337324 4.103453387975161 0 0 1
2356 3 13 -0.72 10.862735967854915 2.6275885432799737 7.670201773953724 0 1 0
310 1 3 0.06 7.155418637423859 8.540164759664481 8.19258829491424 0 0 0
4485 5 3 0.06 6.372322833131967 7.49486986594197 3.8364035368744376 1 0 0
412 1 3 0.06 10.974152768039621 10.573593518422898 5.743780037660046 0 0 0
436 1 3 0.06 8.940780510404771 11.687299761684079 4.979711981725757 0 0 0
466 1 6 -0.06326 14.068387026633506 9.973838438284359 4.945112026166916 0 0 0
403 1 2 0.12 12.726895750391495 12.509689734475137 8.09419752818026 0 0 0
359 1 9 0.06939 22.585762271450452 11.016657130565179 5.650445486700013 0 0 0
64 1 4 0.18 4.416454267731157 1.4307799668920822 7.229861031869406 0 0 0
130 1 13 -0.72 23.614796803548764 4.307719178327982 6.492882372819571 0 0 0
8 1 2 0.12 23.59660124736232 7.363715107572591 4.587361667599774 0 0 0
894 1 8 -0.12 7.162794973791665 10.715218347461484 8.457744843914206 0 0 0
502 1 8 -0.12 9.873869944215674 12.052425713673006 4.601141121839642 0 0 0
1193 2 3 0.06 18.492569961450126 7.131002214832366 9.074417628286163 0 0 1
132 1 1 1.42 15.134266041818034 4.023181214376255 7.431028695844802 0 0 0
68 1 5 -0.12 23.827879354924008 7.66164576422938 5.648536642422671 0 0 0
4622 5 3 0.06 6.37452426924926 4.362294540627756 6.103879124111982 1 0 0
120 1 13 -0.72 22.326696564322965 1.8110419376617428 5.952123619108876 0 0 0
387 1 13 -0.72 6.243142089578349 11.95441226365291 4.313280772223519 0 0 0
801 1 3 0.06 2.1939519127238563 6.970178523260127 9.430761400207498 0 0 0
4676 5 3 0.06 4.830301775163573 5.81380592959872 7.410205673480185 1 0 0
1329 2 3 0.06 20.73261225198964 11.031747500623062 4.567604217166882 0 0 1
490 1 9 0.06939 12.36185799053561 11.647664708454528 4.446163393549662 0 0 0
299 1 3 0.06 9.749236730452646 12.119630442816646 3.4897830842343773 0 0 0
4497 5 3 0.06 7.689292516591275 4.735690692706334 7.145615973700048 1 0 0
4725 5 2 0.12 2.4289205047185636 3.4266622458111096 9.249251578901976 1 0 0
175 1 3 0.06 20.362222734658797 5.811031032543243 7.778139006160635 0 0 0
2231 3 1 1.42 12.626696860317525 2.0083896565143338 7.575734276922312 0 1 0
4551 5 9 0.06939 6.099635658680066 6.8014041103339675 4.717244535159665 1 0 0
849 1 4 0.18 2.6197375436095225 12.156742073047381 7.866107242341524 0 0 0
514 1 13 -0.72 16.44749544638013 12.494526062152437 5.382385552671225 0 0 0
4570 5 12 -0.12613 5.31308619209592 5.722577449179164 4.143503637402225 1 0 0
343 1 7 0.61 5.423198724818248 11.157087877344022 4.842370273557903 0 0 0
287 1 3 0.06 23.342925033868998 11.817683276602175 5.821753970670496 0 0 0
1182 2 1 1.42 12.412655481169285 4.776077079588052 5.993989870308893 0 0 1
139 1 2 0.12 12.585037935631052 8.791490698581093 5.757202899641857 0 0 0
326 1 4 0.18 4.543847784531483 11.524701410449518 6.0391807195012195 0 0 0
248 1 12 -0.12613 16.725261402050553 7.973280312190118 7.404987244948928 0 0 0
1086 2 3 0.06 18.68854803344636 5.816694994409514 7.049542738321486 0 0 1
4266 5 6 -0.06326 24.208025889324528 6.807137247863045 7.91148546568632 0 0 0
861 1 6 -0.06326 2.7584017027831726 10.849569282131757 7.436376657316627 0 0 0
4254 5 4 0.18 24.108129017653976 6.569783490935849 6.478259969346528 0 0 0
4634 5 3 0.06 6.1904202737791 6.4997408379774795 8.363874846661373 1 0 0
4785 5 5 -0.12 3.305198723462036 2.7832420367422177 8.951837457756508 1 0 0
4515 5 4 0.18 23.920084597117025 9.161498497789772 7.508337354032251 0 0 0
34 1 3 0.06 3.7466157816845467 3.552409321717096 5.149739007846452 0 0 0
255 1 13 -0.72 15.072118802330264 5.9829821063995325 7.320836286268319 0 0 0
378 1 12 -0.12613 23.23756636437734 9.852505395035672 5.186927843538053 0 0 0
1140 2 3 0.06 20.839305271313094 6.170503543414924 5.497357661296543 0 0 1
418 1 3 0.06 12.30608257306959 12.412648124535938 3.648461680213453 0 0 0
272 1 2 0.12 3.710591225608518 9.47941545866975 6.288064616632672 0 0 0
4220 5 3 0.06 2.900238833531878 4.5540295776945 6.392895223808408 1 0 0
1007 1 3 0.06 16.686720638910057 11.483213697981308 8.709902255593558 0 0 0
5521 6 3 0.06 7.693058097324106 7.018389389709066 6.156362376755438 1 0 1
210 1 7 0.61 14.185657889886276 6.795402686091159 6.941599273692892 0 0 0
208 1 7 0.61 16.933040688310726 2.4228017653468004 5.920536587176983 0 0 0
3395 4 13 -0.72 15.968174662660447 1.8132237260451953 5.439243931021476 0 1 1
256 1 13 -0.72 15.163423724367618 3.5614743001026046 9.248960124383263 0 0 0
1185 2 2 0.12 18.729819537033165 4.123867924624896 4.875285073828046 0 0 1
76 1 6 -0.06326 3.414767755624761 2.3191765946231753 7.615603782888146 0 0 0
4467 5 3 0.06 8.029855344078584 5.844005489015843 4.821316870560656 1 0 0
885 1 9 0.06939 2.6220341174205037 8.901037523824582 8.757640608034247 0 0 0
151 1 3 0.06 19.976243025647523 8.205190222698771 8.587558003765409 0 0 0
472 1 7 0.61 15.83596279326556 11.74021905822494 4.545928247516006 0 0 0
1119 2 6 -0.06326 20.20659517625326 2.6749466695734014 4.188944460815469 0 0 1
332 1 5 -0.12 3.7740991613567925 10.519240437443935 6.530900935102335 0 0 0
193 1 4 0.18 14.529876862034264 8.264696164742478 6.6812462278220135 0 0 0
819 1 3 0.06 3.5322675096615437 8.471609359230559 8.204342044889387 0 0 0
335 1 6 -0.06326 23.675278408582734 8.972904838006247 6.105056794346632 0 0 0
4200 5 2 0.12 4.93880786644807 3.407440947850474 3.560613017644964 1 0 0
400 1 2 0.12 17.157534674642477 10.435028165861018 6.3069929281036945 0 0 0
58 1 3 0.06 20.368327975836525 2.9005539414156942 8.127444886970142 0 0 0
199 1 5 -0.12 13.647300705891638 9.005049946987619 5.8606242163475395 0 0 0
509 1 12 -0.12613 13.182596998455068 10.46529641183868 4.035970843336372 0 0 0
904 1 12 -0.12613 1.9696390011650449 9.855766073566066 7.862206857231227 0 0 0
205 1 6 -0.06326 15.846566406357669 8.780452988587442 6.791064116303227 0 0 0
191 1 4 0.18 18.27120867079588 2.016962933629139 5.5087834984492865 0 0 0
424 1 3 0.06 12.814162335213597 12.151541529897491 5.376273798540222 0 0 0
1205 2 3 0.06 18.39042078387247 8.689520732335268 6.5049646267633445 0 0 1
163 1 3 0.06 18.016852517269943 9.533495796883342 8.00834533465021 0 0 0
2695 3 6 -0.06326 5.407088903120153 1.6289885286694548 9.406359460999631 0 1 0
460 1 5 -0.12 16.188255191911594 9.904889544334537 6.067416332223935 0 0 0
4479 5 3 0.06 5.551827383143852 7.478477773077113 5.439823216867251 1 0 0
406 1 3 0.06 10.742688929571013 10.187273630354131 4.132640971815729 0 0 0
352 1 3 0.06 8.443571699402185 9.18807710300442 7.2204109257665845 0 0 0
840 1 3 0.06 6.733898898778065 9.462288646659749 6.778190167133456 0 0 0
229 1 9 0.06939 18.069226619140885 8.50911088264452 7.5445499555583035 0 0 0
1289 2 8 -0.12 19.589406890250334 6.460248885941245 7.327813216737338 0 0 1
338 1 6 -0.06326 4.415285155577915 12.859106083948129 6.436175759082823 0 0 0
364 1 10 -0.18 7.414653791584266 9.446724736451966 7.634342516556489 0 0 0
4539 5 8 -0.12 7.226833774635969 6.201784911833739 5.542074770029306 1 0 0
217 1 8 -0.12 19.112777523634257 7.616074289681913 8.273650612064017 0 0 0
867 1 7 0.61 1.8982589052962007 12.453089433763946 9.112016447358512 0 0 0
1019 1 10 -0.18 17.119275530427327 12.062727420707043 9.570957815720815 0 0 0
1162 2 12 -0.12613 20.94438676427467 3.6906449982157907 3.6609114847534934 0 0 1
2286 3 4 0.18 9.259617172641654 2.0473468803630994 6.048517698795207 0 1 0
2166 3 5 -0.12 5.4668395564415295 1.191281906734991 8.114197766234955 0 1 0
876 1 3 0.06 11.467360440451582 8.31170562538231 3.749146863064774 0 0 0
4521 5 5 -0.12 24.019767310155373 8.123836254617224 8.377179048780645 0 0 0
16 1 3 0.06 22.434950656905276 3.872039878762193 8.995547179722312 0 0 0
4319 5 13 -0.72 24.944376731283292 5.0840478044588036 4.831060681398584 0 0 0
347 1 8 -0.12 21.564236682856613 11.71055873052518 4.676648410000513 0 0 0
1235 2 3 0.06 20.985307061292964 7.673955953660065 6.334008249077991 0 0 1
1761 2 3 0.06 17.308826931664967 7.924156829275894 3.8816624976565963 0 0 1
1245 2 5 -0.12 18.992812026916198 3.0308921152467123 4.8093347050292286 0 0 1
748 1 3 0.06 10.888807475454588 7.723229967524965 9.715819212282815 0 0 0
371 1 8 -0.12 21.084527701466182 13.079816477515662 5.1910691991501485 0 0 0
389 1 13 -0.72 23.86175300438052 11.322048049169785 8.351701525621174 0 0 0
275 1 3 0.06 22.08109113143103 11.851828226924187 3.7406078544163393 0 0 0
870 1 8 -0.12 8.161819304296035 10.795491297089761 9.635542224220615 0 0 0
368 1 10 -0.18 19.998006563582816 2.6120517311883336 9.119310625007984 0 0 0
1293 2 12 -0.12613 9.079156749270826 3.417342721222334 4.119672851989824 0 0 1
2653 3 3 0.06 8.14190671734787 2.658715367127246 9.572161149794642 0 1 0
834 1 3 0.06 10.001222855305652 7.531677883303366 4.283212786393552 0 0 0
365 1 10 -0.18 9.936769761644191 13.447250447373342 5.151971699442339 0 0 0
813 1 3 0.06 3.0085940320943294 9.417248723457934 9.683624080786426 0 0 0
442 1 3 0.06 19.250500935970756 12.958088537052673 4.060092072221469 0 0 0
356 1 3 0.06 20.34828827489489 1.6829617869256763 9.479106813827636 0 0 0
1441 2 13 -0.72 24.519170396870194 13.670376230678228 4.363100991174057 0 0 1
798 1 3 0.06 9.147505924255857 10.35862240451636 9.290481391170486 0 0 0
314 1 3 0.06 18.872284324658246 2.52435659287805 8.970135775693155 0 0 0
965 1 3 0.06 18.150804301265552 12.294577656463499 9.216416620716199 0 0 0
1208 2 3 0.06 11.13228685702802 3.2904503583530316 3.5552509312328393 0 0 1
568 1 3 0.06 4.798177868223078 4.442834124063621 11.44599755304793 0 0 0
811 1 3 0.06 20.842655770656506 3.830986364725674 13.69766116313679 0 0 0
159 1 3 0.06 16.500825983436144 5.651351553103171 13.11986196638736 0 0 0
2237 3 2 0.12 13.320101111364496 0.8200057950053639 11.37338587281447 0 1 0
827 1 3 0.06 22.21887881149769 11.467478220642391 10.750850940625693 0 0 0
901 1 12 -0.12613 8.308539877393002 10.735707024344858 12.105103964124043 0 0 0
1016 1 9 0.06939 13.52154834826731 11.134091495441472 10.588353203210918 0 0 0
762 1 8 -0.12 12.068799959117777 5.233336175292952 14.889841002116745 0 0 0
2780 3 3 0.06 8.739075458446322 6.19476723816355 16.132292014045277 0 1 0
607 1 8 -0.12 19.080821203164376 1.2553774837247371 13.562744759332068 0 0 0
799 1 3 0.06 19.948666443196768 5.539866080912013 12.49783517057861 0 0 0
637 1 11 -1.78 2.6615109427166392 0.22479805870714986 14.213105810885581 0 0 0
100 1 9 0.06939 22.592856169146053 2.759878752596081 10.902843664212906 0 0 0
1002 1 8 -0.12 8.945278449326338 9.770724451830649 15.567239744188626 0 0 0
747 1 3 0.06 4.201461752720176 7.2624047317170906 12.436989269501694 0 0 0
954 1 3 0.06 20.119239209388564 8.006462629715372 13.093699931832537 0 0 0
2738 3 12 -0.12613 6.539903060025599 1.4666459243994467 10.121951310489823 0 1 0
499 1 10 -0.18 16.09555604497309 8.193188095594637 12.138738001023734 0 0 0
634 1 8 -0.12 4.465231202801556 5.0821338690164595 12.26840481620684 0 0 0
675 1 3 0.06 18.11253889217529 6.084742624863322 15.790293079995076 0 0 0
895 1 8 -0.12 20.93379708030783 7.230117563991854 13.301646738244116 0 0 0
2635 3 3 0.06 8.641300449298509 3.6220645917641097 11.599805280984643 0 1 0
789 1 1 1.42 3.5070629992179825 10.992304419629228 13.032853861119495 0 0 0
1004 1 8 -0.12 12.865377664728843 9.825462988901005 10.221036878705231 0 0 0
924 1 2 0.12 15.361363725374323 9.603902229370625 15.404254162974592 0 0 0
793 1 2 0.12 3.0023857026131298 7.915666942376792 14.497379199959886 0 0 0
606 1 7 0.61 3.7999517398329794 1.6725210956740852 11.230132170729988 0 0 0
738 1 8 -0.12 10.673314873533002 6.0330013522621915 14.893486242779922 0 0 0
207 1 6 -0.06326 15.435587959637353 3.3474585996695057 12.114050698864064 0 0 0
1008 1 3 0.06 22.672663512136786 6.507781398993211 12.28240942418381 0 0 0
351 1 3 0.06 20.65229628502969 9.875279781412065 12.066638197466386 0 0 0
859 1 6 -0.06326 23.11118018857486 4.280395933121859 15.138631316328459 0 0 0
718 1 4 0.18 14.881086338976303 2.0051646231942937 14.104351607488189 0 0 0
243 1 8 -0.12 16.636716048290033 7.483513291454767 10.855407855712455 0 0 0
750 1 9 0.06939 9.674190233809378 5.528584874424329 15.945229016914197 0 0 0
705 1 3 0.06 5.787528185465816 6.675728852229079 11.900484155079758 0 0 0
4214 5 3 0.06 22.271923039121504 4.656101462624752 10.585958497048502 0 0 0
638 1 12 -0.12613 19.317823716525975 0.4492057102472078 15.744486227120888 0 0 0
2740 3 13 -0.72 5.8672603044203395 0.713920552434512 14.796520218768814 0 1 0
1020 1 10 -0.18 21.84860400315178 7.267641792431417 12.186159090026127 0 0 0
112 1 8 -0.12 20.379948151423577 3.7092657688231103 10.081126464873929 0 0 0
2975 3 3 0.06 9.273952151895067 0.8498757946781532 9.94499747832704 0 1 0
2677 3 3 0.06 10.463593297398184 1.7393431924139775 10.918039528408723 0 1 0
829 1 3 0.06 21.448979369616985 7.521170627474322 14.226962423328805 0 0 0
147 1 3 0.06 17.66560329562691 5.666955775789668 10.27888166386666 0 0 0
622 1 9 0.06939 4.583496441524643 5.544131718072393 14.722113311161145 0 0 0
2686 3 5 -0.12 7.479227190193152 2.858874143110338 15.830934476381241 0 1 0
2707 3 8 -0.12 7.955279368974424 2.6830048980214527 11.644315675727084 0 1 0
708 1 3 0.06 12.594854552643113 5.535667615556869 12.84090312894074 0 0 0
736 1 7 0.61 14.656428737966056 2.0346834703314354 15.608838113268511 0 0 0
46 1 3 0.06 19.880485578453257 3.476314076732752 11.037678648722999 0 0 0
966 1 3 0.06 22.3805223007166 8.25310073522051 12.240377117405442 0 0 0
724 1 5 -0.12 15.509541353274459 3.0898416313511725 13.505870171912148 0 0 0
664 1 2 0.12 16.171593507178173 3.774443761731109 14.067883710043194 0 0 0
882 1 9 0.06939 7.715026986899947 10.136186136397399 10.9032458492869 0 0 0
2291 3 4 0.18 14.594468523663565 2.5758194170118136 11.311716355483188 0 1 0
445 1 3 0.06 16.861392488435754 8.731260992328457 12.671993125278496 0 0 0
525 1 1 1.42 2.622012511154737 1.4097717466496884 15.825274171993856 0 0 0
88 1 8 -0.12 21.901511104052712 3.7982454851139376 9.992610054834007 0 0 0
487 1 3 0.06 15.554059240213466 7.454262966498145 12.876427972699389 0 0 0
538 1 3 0.06 5.084822437651479 3.6931252486210675 13.899451156430105 0 0 0
189 1 3 0.06 15.277909143633641 8.81868291653528 11.94786637009063 0 0 0
1035 1 12 -0.12613 12.385430355709438 12.097596276145747 10.626697354983094 0 0 0
871 1 8 -0.12 20.318462023542505 5.870593581980664 13.449923403760724 0 0 0
865 1 7 0.61 1.5700682103825063 8.919905364152442 12.43635923485289 0 0 0
883 1 9 0.06939 21.41551538555162 4.765995186496579 13.658572809755368 0 0 0
2987 3 10 -0.18 9.634100826277894 0.9491096907050689 10.974358810159304 0 1 0
681 1 3 0.06 16.75146702754395 8.197400241690282 15.306038396065771 0 0 0
2297 3 5 -0.12 13.987261362756641 1.4645779104392542 11.916458486984537 0 1 0
619 1 9 0.06939 18.436927870793497 1.2549210484718467 14.868263496166055 0 0 0
907 1 13 -0.72 2.8239729066150927 9.201502096138778 12.316444551374106 0 0 0
177 1 3 0.06 17.188046313150494 8.20298139289088 10.175057063101665 0 0 0
166 1 3 0.06 12.489730816672246 5.280423553986214 15.927954661387187 0 0 0
553 1 3 0.06 17.436706100267052 0.807103314110557 14.714545652450509 0 0 0
178 1 3 0.06 13.17923420663844 6.7857139442335 13.885835067391627 0 0 0
1028 1 8 -0.12 11.679563410348559 9.397637388477753 11.090142718419527 0 0 0
4226 5 3 0.06 23.617019692381785 3.079634999929707 11.079519364876015 0 0 0
2748 3 13 -0.72 4.683009612638913 1.5598945994821058 12.120229070074394 0 1 0
231 1 9 0.06939 17.01757840165933 5.261244313917794 12.264666378585556 0 0 0
601 1 7 0.61 5.593138753697431 1.3349519074240161 15.872678236004376 0 0 0
693 1 3 0.06 3.418663047172261 4.91515796267613 12.412403380415594 0 0 0
598 1 6 -0.06326 2.177970791398256 5.841807375065427 14.41694550298586 0 0 0
6833 7 3 0.06 7.211306458339599 2.8989903531516648 12.403761390527976 1 1 0
2806 3 3 0.06 9.026523481511006 0.2046061905011003 15.538684876439364 0 1 0
232 1 10 -0.18 13.017481376380964 5.691672039605205 13.798679029679276 0 0 0
641 1 12 -0.12613 3.23087278032231 5.285082359451662 15.091933885953626 0 0 0
694 1 3 0.06 11.914518425791966 9.434911958022766 12.136422817235749 0 0 0
759 1 10 -0.18 4.705326136241514 6.538358224570839 11.79500677840528 0 0 0
2637 3 3 0.06 20.10771271337816 1.5654207391608108 13.573210606445944 0 1 0
2622 3 1 1.42 4.507052826515038 0.21823958812937905 13.57063819003424 0 1 0
2826 3 6 -0.06326 14.09828516725941 1.1440441029636603 13.267492100083642 0 1 0
610 1 8 -0.12 5.135708853351087 4.740053124965028 13.55549081970443 0 0 0
930 1 3 0.06 8.561154106924182 10.120452523331725 14.585633191704982 0 0 0
4847 5 13 -0.72 2.5938819347412663 1.3887419783566886 11.279368195972292 1 0 0
433 1 3 0.06 15.75734678954349 7.108581801127479 10.360948008088355 0 0 0
760 1 10 -0.18 11.267182146273566 7.984891072729362 10.73349531327101 0 0 0
645 1 13 -0.72 23.11347953051018 0.09927847383518085 15.002687269618457 0 0 0
219 1 8 -0.12 17.518327529586024 6.2734445310828875 11.213009587623013 0 0 0
912 1 13 -0.72 5.330546372251039 11.537553732046641 12.659095813175073 0 0 0
2626 3 2 0.12 7.1605078913298685 3.0207605505721857 14.808874072456074 0 1 0
550 1 3 0.06 4.615127380231937 6.622455196101063 14.562069172832697 0 0 0
363 1 10 -0.18 20.31396898684296 10.815661397462874 11.638993972429466 0 0 0
696 1 3 0.06 11.807355604813356 4.179635587836046 14.639621693109898 0 0 0
2865 3 12 -0.12613 9.314876429526429 4.202310160753802 15.602963812591057 0 1 0
580 1 3 0.06 4.458602716202936 6.669677803532253 10.71627813498075 0 0 0
547 1 3 0.06 18.3274685547293 2.2565195127490583 15.319780345160398 0 0 0
2731 3 8 -0.12 8.55789620353523 1.3186765300315262 12.05823619792047 0 1 0
544 1 3 0.06 6.247078455652701 5.039246142199759 13.40909081458732 0 0 0
2876 3 13 -0.72 13.703665125066397 1.3256869274086385 16.07797983898212 0 1 0
586 1 4 0.18 1.1357227256375984 4.983816468947255 14.102808768976965 0 0 0
153 1 3 0.06 18.526976356482216 6.616003147274929 11.427776607047164 0 0 0
2921 3 3 0.06 8.911357022348973 1.2959939300940917 13.091026475754164 0 1 0
2768 3 3 0.06 10.9223911652284 7.070562452515539 15.183915122038488 0 1 0
4311 5 12 -0.12613 22.547051757655048 1.4811104036670897 10.300584429157482 0 0 0
250 1 12 -0.12613 15.986966861432515 4.527420817837576 11.603697602566891 0 0 0
2647 3 3 0.06 6.654778798174418 3.5948610063630455 9.994551658136487 0 1 0
535 1 3 0.06 18.572174458088462 2.053482390945082 12.933699671317058 0 0 0
853 1 5 -0.12 2.2343499657650967 7.237490672848966 14.10494038738648 0 0 0
165 1 3 0.06 17.893118742355888 4.703898670821694 12.565520486993721 0 0 0
2308 3 7 0.61 14.338578025434732 2.8118271176987726 9.881986639268579 0 1 0
47 1 3 0.06 16.974111685049635 0.37450551982862357 11.911805163038485 0 0 0
962 1 3 0.06 10.863916576974109 10.06005639147035 10.8287024541537 0 0 0
902 1 12 -0.12613 22.096748272571055 5.014072607221971 14.837104491166361 0 0 0
944 1 3 0.06 13.96335737284017 11.1290397079792 11.663201245375571 0 0 0
942 1 3 0.06 10.80669535637863 10.637785257391668 14.928576372110959 0 0 0
532 1 2 0.12 22.297852680385763 2.4700769866335186 14.318338804341534 0 0 0
220 1 3 0.06 14.024169964297066 5.2367554621826695 13.88796854835865 0 0 0
917 1 13 -0.72 3.287868713474837 10.683647421290068 14.9124511092707 0 0 0
28 1 3 0.06 21.962866660736065 2.8708346438062344 11.851815624438222 0 0 0
309 1 3 0.06 19.995163824313394 10.556242835888536 10.57941054343657 0 0 0
666 1 3 0.06 10.267572743888678 6.0966642431307285 13.871065248685868 0 0 0
847 1 4 0.18 1.2418464761814767 7.683693685765041 13.259766643954805 0 0 0
4268 5 6 -0.06326 23.49555676474891 0.6021620940136658 10.765193957503325 0 0 0
805 1 3 0.06 19.4544921074972 5.782327093940403 14.1646889236154 0 0 0
841 1 3 0.06 21.39498633264631 7.207292566688153 11.202397504491017 0 0 0
648 1 13 -0.72 1.832514508031341 3.131922399299853 15.38542260315923 0 0 0
603 1 7 0.61 1.3786694191900066 3.5299546246660287 14.280064583010233 0 0 0
2719 3 9 0.06939 7.310396132936992 2.671580293386431 10.271730980557246 0 1 0
817 1 3 0.06 22.108756948756707 4.719560938797009 12.77931381153334 0 0 0
556 1 3 0.06 5.221862335888435 5.4250263361250575 15.624929584844024 0 0 0
816 1 3 0.06 6.680185988338726 10.0859574648394 11.069352676890299 0 0 0
869 1 8 -0.12 22.316832173628406 11.791088637307308 12.855893518830367 0 0 0
706 1 3 0.06 10.470034451170257 7.6819025396777665 11.403385755797025 0 0 0
936 1 3 0.06 9.106126179355437 8.710519192018808 15.43142104317844 0 0 0
893 1 8 -0.12 21.478524128236167 11.802517736373558 11.546853239055576 0 0 0
810 1 3 0.06 8.00508030182279 9.118637620510903 10.865651409505876 0 0 0
974 1 3 0.06 12.072300036515339 7.196749404787344 10.874465004742435 0 0 0
803 1 3 0.06 22.606046141098858 10.723324899260987 12.967076732652112 0 0 0
592 1 5 -0.12 23.15072972727966 2.8773237403595644 14.981199302566303 0 0 0
669 1 3 0.06 19.13693427986142 7.3213445431486095 15.81433125742352 0 0 0
835 1 3 0.06 6.360762510434824 8.760051779555221 15.44233339486402 0 0 0
2665 3 3 0.06 7.765519019890164 0.5350090827750282 11.992054752797108 0 1 0
2778 3 3 0.06 11.782198228329879 0.3499372045551943 13.081291719898513 0 1 0
2869 3 12 -0.12613 13.693071798524866 -0.04827376389140836 13.813824327117056 0 1 0
1014 1 9 0.06939 10.278636250237387 10.442391244866098 15.904989636028384 0 0 0
447 1 3 0.06 17.14919467428794 11.483560923642788 10.446955213003385 0 0 0
839 1 3 0.06 19.36614113824908 11.107380274465763 12.18611602390464 0 0 0
900 1 12 -0.12613 20.61729318122089 11.200406376659068 14.670413931441166 0 0 0
984 1 5 -0.12 14.58389437481796 9.303366254942585 16.088768944690408 0 0 0
587 1 4 0.18 4.217971674663943 2.226833063248921 9.892657934864234 0 0 0
938 1 3 0.06 13.654334494897116 9.041035207142153 10.303060780509659 0 0 0
960 1 3 0.06 7.15144314368215 10.819319841783003 16.223715393695997 0 0 0
978 1 4 0.18 13.296351171381957 9.897774771043858 16.125484224205195 0 0 0
950 1 3 0.06 14.354824244657683 11.464905165567071 9.953018790281483 0 0 0
804 1 3 0.06 8.39989275909387 11.884261850714367 9.866045609974002 0 0 0
289 1 3 0.06 1.9035384661391808 5.90283695801762 19.793927293440422 0 0 0
785 1 13 -0.72 12.831481484641293 5.834155137671029 18.938257874130436 0 0 0
373 1 8 -0.12 4.6056052196729365 4.753520912264108 19.168441759750248 0 0 0
770 1 12 -0.12613 17.659597662978953 -0.42151829586396694 21.051510170371948 0 0 0
392 1 13 -0.72 0.21214716650849041 4.855844447026255 22.148817894627122 0 0 0
390 1 13 -0.72 0.2187937088260563 7.401781255955591 20.093407613535863 0 0 0
4732 5 3 0.06 0.8180581544118493 3.611135680236799 18.36445433053131 1 0 0
1359 2 3 0.06 8.057186385805807 5.074416139365686 20.733176669866022 0 0 0
2754 3 1 1.42 14.461842629766451 1.4311968505609163 20.318465664739385 0 1 0
504 1 8 -0.12 11.178329437507982 8.421692178722182 22.213967924143404 0 0 0
277 1 3 0.06 3.0661125516757535 4.930274107249408 17.665842858757006 0 0 0
2756 3 2 0.12 8.512528853662747 2.059777283212631 19.517423671832756 0 1 0
715 1 4 0.18 17.759952782974757 0.9263467324776169 19.020224897609545 0 0 0
554 1 3 0.06 5.238110426387859 -0.41106184222107345 17.70273213343654 0 0 0
2132 3 3 0.06 5.936162138229212 -1.8691362390444075 21.486169869802094 0 1 0
307 1 3 0.06 5.1877700789400585 5.402015940510824 19.852497651843535 0 0 0
2828 3 7 0.61 10.43463235646532 3.1023153135959727 18.06896911586953 0 1 0
39 1 3 0.06 5.328960997119731 4.25565020565664 18.467684234638565 0 0 0
51 1 3 0.06 3.1906782715132276 3.744031851925276 20.67319380248411 0 0 0
540 1 3 0.06 20.650932216109407 3.1127312623115886 19.487682668223993 0 0 0
2864 3 11 -1.78 13.726851643872669 2.652926387798193 19.048607336352532 0 1 0
596 1 6 -0.06326 7.07164294388215 1.7219722275123246 17.90284320730875 0 0 0
906 1 13 -0.72 20.44926520149482 9.433708043260388 18.293838421198988 0 0 0
889 1 10 -0.18 6.8545034262068025 8.708885356696344 16.423612146070372 0 0 0
182 1 3 0.06 13.092771623361308 8.350326466115028 21.28771262933599 0 0 0
552 1 3 0.06 20.48811954645857 1.4060678210769182 21.319296714730744 0 0 0
325 1 4 0.18 1.042437536944273 9.364392301858526 19.01652354804902 0 0 0
1413 2 10 -0.18 7.871746879512733 4.526448270578279 21.681028918169048 0 0 0
2877 3 13 -0.72 16.33892238795225 1.791869143237875 20.76778044363196 0 1 0
268 1 2 0.12 3.7141339680392202 9.052621709003416 21.903533818419547 0 0 0
584 1 4 0.18 6.753328404876732 1.9475911974453228 16.580703620171008 0 0 0
661 1 2 0.12 18.0380462859174 2.030908776773831 17.199516968210624 0 0 0
1401 2 3 0.06 8.787469098560896 4.511664335654541 22.22313573273643 0 0 0
2704 3 8 -0.12 4.915333482168653 -0.5726356768154921 19.8989241742636 0 1 0
93 1 3 0.06 3.277900093602277 3.00577495581195 19.176292517885315 0 0 0
823 1 3 0.06 8.189503326536627 10.028344452486177 17.6393670050929 0 0 0
717 1 4 0.18 13.746248134583045 7.559831461688695 17.61461986945508 0 0 0
756 1 10 -0.18 1.8835815122301534 0.8710398237380006 22.054155598853505 0 0 0
542 1 3 0.06 4.4758823931171925 0.0821860008502151 20.629262757981206 0 0 0
2822 3 6 -0.06326 8.55558052944076 3.460783980258895 16.442637597154413 0 1 0
649 1 13 -0.72 1.3587104228662392 0.5907722137000855 17.088076174629542 0 0 0
283 1 3 0.06 4.072944060521834 6.233476897676175 17.67051971443658 0 0 0
699 1 3 0.06 18.80881915742583 7.663992164659989 18.35069738079144 0 0 0
783 1 13 -0.72 12.717417800727494 3.6655696757752416 21.715022300386682 0 0 0
595 1 6 -0.06326 19.008512597442213 0.18768615054581783 17.088761173663734 0 0 0
647 1 13 -0.72 4.490179858314299 1.4811675532673898 16.416574500566515 0 0 0
1033 1 12 -0.12613 10.994798442714375 9.66825487135287 16.920155461510113 0 0 0
2816 3 5 -0.12 8.107478452076393 2.3942861034676586 18.568572426393395 0 1 0
583 1 4 0.18 19.535710309059613 -0.9045439912769386 17.822840081113114 0 0 0
2632 3 3 0.06 4.0788252509843 -1.1587430093383198 19.60834481073245 0 1 0
741 1 8 -0.12 18.261470073191358 7.018188226052324 16.3712970187089 0 0 0
909 1 13 -0.72 21.606213630745998 9.973407882471708 16.379401903992175 0 0 0
702 1 3 0.06 0.8302114116336878 1.2264801900360696 22.069678328182693 0 0 0
678 1 3 0.06 10.129309299749764 5.619323671812941 16.911085788419392 0 0 0
777 1 13 -0.72 15.368640106351586 2.866161969216031 16.260197400358784 0 0 0
2882 3 13 -0.72 13.285002916291019 1.3921105054859266 21.899665419177964 0 1 0
775 1 13 -0.72 10.79690317557478 3.5418293932826717 19.207545976494252 0 0 0
729 1 6 -0.06326 14.83751221641959 8.186643743292686 16.863673472723036 0 0 0