LAMMPS (29 Sep 2021)
clear
units real
boundary p p p
atom_style full


neighbor 2.0 bin


# ------------------------ MOF-FF FORCE FIELD ------------------------------


pair_style buck6d/coul/gauss/long     0.9000     0.9000    12.0000
box tilt large
dihedral_style opls
improper_style inversion/harmonic
read_data 		C4_222.data
Reading data file ...
  orthogonal box = (0.0000000 0.0000000 0.0000000) to (51.703312 51.703314 51.703314)
  2 by 4 by 7 MPI processor grid
  reading atoms ...
  8384 atoms
  scanning bonds ...
  4 = max bonds/atom
  scanning angles ...
  6 = max angles/atom
  scanning dihedrals ...
  36 = max dihedrals/atom
  scanning impropers ...
  2 = max impropers/atom
  reading bonds ...
  9088 bonds
  reading angles ...
  16896 angles
  reading dihedrals ...
  24576 dihedrals
  reading impropers ...
  1536 impropers
Finding 1-2 1-3 1-4 neighbors ...
  special bond factors lj:    0        0        0       
  special bond factors coul:  0        0        0       
     4 = max # of 1-2 neighbors
    12 = max # of 1-3 neighbors
    24 = max # of 1-4 neighbors
    22 = max # of special neighbors
  special bonds CPU = 0.003 seconds
  read_data CPU = 0.085 seconds
include			parameters.dat.txt

pair_coeff     1     1           50784       2.6200873       5731.7134        39.94184      0.34105377    # buck6d->(zn4_o4@zn4o)|Zn4O_benz/gaussian->(zn4_o4@zn4o)|Zn4O_benz <--> buck6d->(zn4_o4@zn4o)|Zn4O_benz/gaussian->(zn4_o4@zn4o)|Zn4O_benz
pair_coeff     1     2       13670.593       3.1662269       495.43572       2.8200727      0.45538243    # buck6d->(zn4_o4@zn4o)|Zn4O_benz/gaussian->(zn4_o4@zn4o)|Zn4O_benz <--> buck6d->(h1_c1@ph)|benzene/gaussian->(h1_c1@ph)|benzene
pair_coeff     1     3       13670.593       3.1662269       495.43572       2.8200727      0.45538243    # buck6d->(zn4_o4@zn4o)|Zn4O_benz/gaussian->(zn4_o4@zn4o)|Zn4O_benz <--> buck6d->(h1_c1@me)|butane/gaussian->(h1_c1@me)|butane
pair_coeff     1     4       22875.278       2.8235294       1648.4078        14.02027      0.42066066    # buck6d->(zn4_o4@zn4o)|Zn4O_benz/gaussian->(zn4_o4@zn4o)|Zn4O_benz <--> buck6d->(c3_c2h1@ph)|benzene/gaussian->(c3_c3@ph)|Zn4O_benz
pair_coeff     1     5       22875.278       2.8235294       1648.4078        14.02027      0.42066187    # buck6d->(zn4_o4@zn4o)|Zn4O_benz/gaussian->(zn4_o4@zn4o)|Zn4O_benz <--> buck6d->(c3_c2h1@ph)|benzene/gaussian->(c3_c2h1@ph)|benzene
pair_coeff     1     6       22875.278       2.8235294       1648.4078        14.02027      0.42066187    # buck6d->(zn4_o4@zn4o)|Zn4O_benz/gaussian->(zn4_o4@zn4o)|Zn4O_benz <--> buck6d->(c3_c2o1@ph)|ph-O-butyl/gaussian->(c3_c2o1@ph)|ph-O-butyl
pair_coeff     1     7       22875.278       2.8368794       1602.4086       13.124311      0.42066066    # buck6d->(zn4_o4@zn4o)|Zn4O_benz/gaussian->(zn4_o4@zn4o)|Zn4O_benz <--> buck6d->(c3_c1o2@co2)|Zn4O_benz/gaussian->(c3_c1o2@co2)|Zn4O_benz
pair_coeff     1     8       15883.794       2.7713626       1280.1071       18.202956      0.42066187    # buck6d->(zn4_o4@zn4o)|Zn4O_benz/gaussian->(zn4_o4@zn4o)|Zn4O_benz <--> buck6d->(c4_c2h2@me)|butane/gaussian->(c4_c2h2@me)|butane
pair_coeff     1     9       15883.794       2.7713626       1280.1071       18.202956      0.42066187    # buck6d->(zn4_o4@zn4o)|Zn4O_benz/gaussian->(zn4_o4@zn4o)|Zn4O_benz <--> buck6d->(c4_c1h2o1@me)|ph-O-butyl/gaussian->(c4_c1h2o1@me)|ph-O-butyl
pair_coeff     1    10       15883.794       2.7713626       1280.1071       18.202956      0.42066187    # buck6d->(zn4_o4@zn4o)|Zn4O_benz/gaussian->(zn4_o4@zn4o)|Zn4O_benz <--> buck6d->(c4_c1h3@me)|butane/gaussian->(c4_c1h3@me)|butane
pair_coeff     1    11       23480.015        2.919708       1383.9296       8.7719648      0.42456807    # buck6d->(zn4_o4@zn4o)|Zn4O_benz/gaussian->(zn4_o4@zn4o)|Zn4O_benz <--> buck6d->(o4_zn4@zn4o)|Zn4O_benz/gaussian->(o4_zn4@zn4o)|Zn4O_benz
pair_coeff     1    12       23480.015        2.919708       1383.9296       8.7719648      0.42457209    # buck6d->(zn4_o4@zn4o)|Zn4O_benz/gaussian->(zn4_o4@zn4o)|Zn4O_benz <--> buck6d->(o2_c2@eth)|ph-O-butyl/gaussian->(o2_c2@eth)|ph-O-butyl
pair_coeff     1    13       23480.015        2.919708       1383.9296       8.7719648      0.42456807    # buck6d->(zn4_o4@zn4o)|Zn4O_benz/gaussian->(zn4_o4@zn4o)|Zn4O_benz <--> buck6d->(o2_c1zn1@co2)|Zn4O_benz/gaussian->(o2_c1zn1@co2)|Zn4O_benz
pair_coeff     2     2            3680               4          32.805      0.10690769       0.9771554    # buck6d->(h1_c1@ph)|benzene/gaussian->(h1_c1@ph)|benzene <--> buck6d->(h1_c1@ph)|benzene/gaussian->(h1_c1@ph)|benzene
pair_coeff     2     3            3680               4          32.805      0.10690769       0.9771554    # buck6d->(h1_c1@ph)|benzene/gaussian->(h1_c1@ph)|benzene <--> buck6d->(h1_c1@me)|butane/gaussian->(h1_c1@me)|butane
pair_coeff     2     4       6157.8178       3.4682081       129.19572      0.78772886      0.73005908    # buck6d->(h1_c1@ph)|benzene/gaussian->(h1_c1@ph)|benzene <--> buck6d->(c3_c2h1@ph)|benzene/gaussian->(c3_c3@ph)|Zn4O_benz
pair_coeff     2     5       6157.8178       3.4682081       129.19572      0.78772886      0.73006542    # buck6d->(h1_c1@ph)|benzene/gaussian->(h1_c1@ph)|benzene <--> buck6d->(c3_c2h1@ph)|benzene/gaussian->(c3_c2h1@ph)|benzene
pair_coeff     2     6       6157.8178       3.4682081       129.19572      0.78772886      0.73006542    # buck6d->(h1_c1@ph)|benzene/gaussian->(h1_c1@ph)|benzene <--> buck6d->(c3_c2o1@ph)|ph-O-butyl/gaussian->(c3_c2o1@ph)|ph-O-butyl
pair_coeff     2     7       6157.8178       3.4883721        124.7792      0.72632262      0.73005908    # buck6d->(h1_c1@ph)|benzene/gaussian->(h1_c1@ph)|benzene <--> buck6d->(c3_c1o2@co2)|Zn4O_benz/gaussian->(c3_c1o2@co2)|Zn4O_benz
pair_coeff     2     8       4275.7736       3.3898305       102.89611       1.0848184      0.73006542    # buck6d->(h1_c1@ph)|benzene/gaussian->(h1_c1@ph)|benzene <--> buck6d->(c4_c2h2@me)|butane/gaussian->(c4_c2h2@me)|butane
pair_coeff     2     9       4275.7736       3.3898305       102.89611       1.0848184      0.73006542    # buck6d->(h1_c1@ph)|benzene/gaussian->(h1_c1@ph)|benzene <--> buck6d->(c4_c1h2o1@me)|ph-O-butyl/gaussian->(c4_c1h2o1@me)|ph-O-butyl
pair_coeff     2    10       4275.7736       3.3898305       102.89611       1.0848184      0.73006542    # buck6d->(h1_c1@ph)|benzene/gaussian->(h1_c1@ph)|benzene <--> buck6d->(c4_c1h3@me)|butane/gaussian->(c4_c1h3@me)|butane
pair_coeff     2    11       6320.6076       3.6144578       103.50278      0.44181916      0.75107727    # buck6d->(h1_c1@ph)|benzene/gaussian->(h1_c1@ph)|benzene <--> buck6d->(o4_zn4@zn4o)|Zn4O_benz/gaussian->(o4_zn4@zn4o)|Zn4O_benz
pair_coeff     2    12       6320.6076       3.6144578       103.50278      0.44181916      0.75109952    # buck6d->(h1_c1@ph)|benzene/gaussian->(h1_c1@ph)|benzene <--> buck6d->(o2_c2@eth)|ph-O-butyl/gaussian->(o2_c2@eth)|ph-O-butyl
pair_coeff     2    13       6320.6076       3.6144578       103.50278      0.44181916      0.75107727    # buck6d->(h1_c1@ph)|benzene/gaussian->(h1_c1@ph)|benzene <--> buck6d->(o2_c1zn1@co2)|Zn4O_benz/gaussian->(o2_c1zn1@co2)|Zn4O_benz
pair_coeff     3     3            3680               4          32.805      0.10690769       0.9771554    # buck6d->(h1_c1@me)|butane/gaussian->(h1_c1@me)|butane <--> buck6d->(h1_c1@me)|butane/gaussian->(h1_c1@me)|butane
pair_coeff     3     4       6157.8178       3.4682081       129.19572      0.78772886      0.73005908    # buck6d->(h1_c1@me)|butane/gaussian->(h1_c1@me)|butane <--> buck6d->(c3_c2h1@ph)|benzene/gaussian->(c3_c3@ph)|Zn4O_benz
pair_coeff     3     5       6157.8178       3.4682081       129.19572      0.78772886      0.73006542    # buck6d->(h1_c1@me)|butane/gaussian->(h1_c1@me)|butane <--> buck6d->(c3_c2h1@ph)|benzene/gaussian->(c3_c2h1@ph)|benzene
pair_coeff     3     6       6157.8178       3.4682081       129.19572      0.78772886      0.73006542    # buck6d->(h1_c1@me)|butane/gaussian->(h1_c1@me)|butane <--> buck6d->(c3_c2o1@ph)|ph-O-butyl/gaussian->(c3_c2o1@ph)|ph-O-butyl
pair_coeff     3     7       6157.8178       3.4883721        124.7792      0.72632262      0.73005908    # buck6d->(h1_c1@me)|butane/gaussian->(h1_c1@me)|butane <--> buck6d->(c3_c1o2@co2)|Zn4O_benz/gaussian->(c3_c1o2@co2)|Zn4O_benz
pair_coeff     3     8       4275.7736       3.3898305       102.89611       1.0848184      0.73006542    # buck6d->(h1_c1@me)|butane/gaussian->(h1_c1@me)|butane <--> buck6d->(c4_c2h2@me)|butane/gaussian->(c4_c2h2@me)|butane
pair_coeff     3     9       4275.7736       3.3898305       102.89611       1.0848184      0.73006542    # buck6d->(h1_c1@me)|butane/gaussian->(h1_c1@me)|butane <--> buck6d->(c4_c1h2o1@me)|ph-O-butyl/gaussian->(c4_c1h2o1@me)|ph-O-butyl
pair_coeff     3    10       4275.7736       3.3898305       102.89611       1.0848184      0.73006542    # buck6d->(h1_c1@me)|butane/gaussian->(h1_c1@me)|butane <--> buck6d->(c4_c1h3@me)|butane/gaussian->(c4_c1h3@me)|butane
pair_coeff     3    11       6320.6076       3.6144578       103.50278      0.44181916      0.75107727    # buck6d->(h1_c1@me)|butane/gaussian->(h1_c1@me)|butane <--> buck6d->(o4_zn4@zn4o)|Zn4O_benz/gaussian->(o4_zn4@zn4o)|Zn4O_benz
pair_coeff     3    12       6320.6076       3.6144578       103.50278      0.44181916      0.75109952    # buck6d->(h1_c1@me)|butane/gaussian->(h1_c1@me)|butane <--> buck6d->(o2_c2@eth)|ph-O-butyl/gaussian->(o2_c2@eth)|ph-O-butyl
pair_coeff     3    13       6320.6076       3.6144578       103.50278      0.44181916      0.75107727    # buck6d->(h1_c1@me)|butane/gaussian->(h1_c1@me)|butane <--> buck6d->(o2_c1zn1@co2)|Zn4O_benz/gaussian->(o2_c1zn1@co2)|Zn4O_benz
pair_coeff     4     4           10304       3.0612245       457.17971       4.5218516      0.60800239    # buck6d->(c3_c2h1@ph)|benzene/gaussian->(c3_c3@ph)|Zn4O_benz <--> buck6d->(c3_c2h1@ph)|benzene/gaussian->(c3_c3@ph)|Zn4O_benz
pair_coeff     4     5           10304       3.0612245       457.17971       4.5218516      0.60800605    # buck6d->(c3_c2h1@ph)|benzene/gaussian->(c3_c3@ph)|Zn4O_benz <--> buck6d->(c3_c2h1@ph)|benzene/gaussian->(c3_c2h1@ph)|benzene
pair_coeff     4     6           10304       3.0612245       457.17971       4.5218516      0.60800605    # buck6d->(c3_c2h1@ph)|benzene/gaussian->(c3_c3@ph)|Zn4O_benz <--> buck6d->(c3_c2o1@ph)|ph-O-butyl/gaussian->(c3_c2o1@ph)|ph-O-butyl
pair_coeff     4     7           10304       3.0769231       443.36171       4.2093581      0.60800239    # buck6d->(c3_c2h1@ph)|benzene/gaussian->(c3_c3@ph)|Zn4O_benz <--> buck6d->(c3_c1o2@co2)|Zn4O_benz/gaussian->(c3_c1o2@co2)|Zn4O_benz
pair_coeff     4     8       7154.7377               3       358.35904               6      0.60800605    # buck6d->(c3_c2h1@ph)|benzene/gaussian->(c3_c3@ph)|Zn4O_benz <--> buck6d->(c4_c2h2@me)|butane/gaussian->(c4_c2h2@me)|butane
pair_coeff     4     9       7154.7377               3       358.35904               6      0.60800605    # buck6d->(c3_c2h1@ph)|benzene/gaussian->(c3_c3@ph)|Zn4O_benz <--> buck6d->(c4_c1h2o1@me)|ph-O-butyl/gaussian->(c4_c1h2o1@me)|ph-O-butyl
pair_coeff     4    10       7154.7377               3       358.35904               6      0.60800605    # buck6d->(c3_c2h1@ph)|benzene/gaussian->(c3_c3@ph)|Zn4O_benz <--> buck6d->(c4_c1h3@me)|butane/gaussian->(c4_c1h3@me)|butane
pair_coeff     4    11       10576.399       3.1746032       377.27092       2.7176691      0.61998309    # buck6d->(c3_c2h1@ph)|benzene/gaussian->(c3_c3@ph)|Zn4O_benz <--> buck6d->(o4_zn4@zn4o)|Zn4O_benz/gaussian->(o4_zn4@zn4o)|Zn4O_benz
pair_coeff     4    12       10576.399       3.1746032       377.27092       2.7176691       0.6199956    # buck6d->(c3_c2h1@ph)|benzene/gaussian->(c3_c3@ph)|Zn4O_benz <--> buck6d->(o2_c2@eth)|ph-O-butyl/gaussian->(o2_c2@eth)|ph-O-butyl
pair_coeff     4    13       10576.399       3.1746032       377.27092       2.7176691      0.61998309    # buck6d->(c3_c2h1@ph)|benzene/gaussian->(c3_c3@ph)|Zn4O_benz <--> buck6d->(o2_c1zn1@co2)|Zn4O_benz/gaussian->(o2_c1zn1@co2)|Zn4O_benz
pair_coeff     5     5           10304       3.0612245       457.17971       4.5218516      0.60800971    # buck6d->(c3_c2h1@ph)|benzene/gaussian->(c3_c2h1@ph)|benzene <--> buck6d->(c3_c2h1@ph)|benzene/gaussian->(c3_c2h1@ph)|benzene
pair_coeff     5     6           10304       3.0612245       457.17971       4.5218516      0.60800971    # buck6d->(c3_c2h1@ph)|benzene/gaussian->(c3_c2h1@ph)|benzene <--> buck6d->(c3_c2o1@ph)|ph-O-butyl/gaussian->(c3_c2o1@ph)|ph-O-butyl
pair_coeff     5     7           10304       3.0769231       443.36171       4.2093581      0.60800605    # buck6d->(c3_c2h1@ph)|benzene/gaussian->(c3_c2h1@ph)|benzene <--> buck6d->(c3_c1o2@co2)|Zn4O_benz/gaussian->(c3_c1o2@co2)|Zn4O_benz
pair_coeff     5     8       7154.7377               3       358.35904               6      0.60800971    # buck6d->(c3_c2h1@ph)|benzene/gaussian->(c3_c2h1@ph)|benzene <--> buck6d->(c4_c2h2@me)|butane/gaussian->(c4_c2h2@me)|butane
pair_coeff     5     9       7154.7377               3       358.35904               6      0.60800971    # buck6d->(c3_c2h1@ph)|benzene/gaussian->(c3_c2h1@ph)|benzene <--> buck6d->(c4_c1h2o1@me)|ph-O-butyl/gaussian->(c4_c1h2o1@me)|ph-O-butyl
pair_coeff     5    10       7154.7377               3       358.35904               6      0.60800971    # buck6d->(c3_c2h1@ph)|benzene/gaussian->(c3_c2h1@ph)|benzene <--> buck6d->(c4_c1h3@me)|butane/gaussian->(c4_c1h3@me)|butane
pair_coeff     5    11       10576.399       3.1746032       377.27092       2.7176691      0.61998697    # buck6d->(c3_c2h1@ph)|benzene/gaussian->(c3_c2h1@ph)|benzene <--> buck6d->(o4_zn4@zn4o)|Zn4O_benz/gaussian->(o4_zn4@zn4o)|Zn4O_benz
pair_coeff     5    12       10576.399       3.1746032       377.27092       2.7176691      0.61999948    # buck6d->(c3_c2h1@ph)|benzene/gaussian->(c3_c2h1@ph)|benzene <--> buck6d->(o2_c2@eth)|ph-O-butyl/gaussian->(o2_c2@eth)|ph-O-butyl
pair_coeff     5    13       10576.399       3.1746032       377.27092       2.7176691      0.61998697    # buck6d->(c3_c2h1@ph)|benzene/gaussian->(c3_c2h1@ph)|benzene <--> buck6d->(o2_c1zn1@co2)|Zn4O_benz/gaussian->(o2_c1zn1@co2)|Zn4O_benz
pair_coeff     6     6           10304       3.0612245       457.17971       4.5218516      0.60800971    # buck6d->(c3_c2o1@ph)|ph-O-butyl/gaussian->(c3_c2o1@ph)|ph-O-butyl <--> buck6d->(c3_c2o1@ph)|ph-O-butyl/gaussian->(c3_c2o1@ph)|ph-O-butyl
pair_coeff     6     7           10304       3.0769231       443.36171       4.2093581      0.60800605    # buck6d->(c3_c2o1@ph)|ph-O-butyl/gaussian->(c3_c2o1@ph)|ph-O-butyl <--> buck6d->(c3_c1o2@co2)|Zn4O_benz/gaussian->(c3_c1o2@co2)|Zn4O_benz
pair_coeff     6     8       7154.7377               3       358.35904               6      0.60800971    # buck6d->(c3_c2o1@ph)|ph-O-butyl/gaussian->(c3_c2o1@ph)|ph-O-butyl <--> buck6d->(c4_c2h2@me)|butane/gaussian->(c4_c2h2@me)|butane
pair_coeff     6     9       7154.7377               3       358.35904               6      0.60800971    # buck6d->(c3_c2o1@ph)|ph-O-butyl/gaussian->(c3_c2o1@ph)|ph-O-butyl <--> buck6d->(c4_c1h2o1@me)|ph-O-butyl/gaussian->(c4_c1h2o1@me)|ph-O-butyl
pair_coeff     6    10       7154.7377               3       358.35904               6      0.60800971    # buck6d->(c3_c2o1@ph)|ph-O-butyl/gaussian->(c3_c2o1@ph)|ph-O-butyl <--> buck6d->(c4_c1h3@me)|butane/gaussian->(c4_c1h3@me)|butane
pair_coeff     6    11       10576.399       3.1746032       377.27092       2.7176691      0.61998697    # buck6d->(c3_c2o1@ph)|ph-O-butyl/gaussian->(c3_c2o1@ph)|ph-O-butyl <--> buck6d->(o4_zn4@zn4o)|Zn4O_benz/gaussian->(o4_zn4@zn4o)|Zn4O_benz
pair_coeff     6    12       10576.399       3.1746032       377.27092       2.7176691      0.61999948    # buck6d->(c3_c2o1@ph)|ph-O-butyl/gaussian->(c3_c2o1@ph)|ph-O-butyl <--> buck6d->(o2_c2@eth)|ph-O-butyl/gaussian->(o2_c2@eth)|ph-O-butyl
pair_coeff     6    13       10576.399       3.1746032       377.27092       2.7176691      0.61998697    # buck6d->(c3_c2o1@ph)|ph-O-butyl/gaussian->(c3_c2o1@ph)|ph-O-butyl <--> buck6d->(o2_c1zn1@co2)|Zn4O_benz/gaussian->(o2_c1zn1@co2)|Zn4O_benz
pair_coeff     7     7           10304       3.0927835       429.89352       3.9170177      0.60800239    # buck6d->(c3_c1o2@co2)|Zn4O_benz/gaussian->(c3_c1o2@co2)|Zn4O_benz <--> buck6d->(c3_c1o2@co2)|Zn4O_benz/gaussian->(c3_c1o2@co2)|Zn4O_benz
pair_coeff     7     8       7154.7377       3.0150754       347.74176       5.5933807      0.60800605    # buck6d->(c3_c1o2@co2)|Zn4O_benz/gaussian->(c3_c1o2@co2)|Zn4O_benz <--> buck6d->(c4_c2h2@me)|butane/gaussian->(c4_c2h2@me)|butane
pair_coeff     7     9       7154.7377       3.0150754       347.74176       5.5933807      0.60800605    # buck6d->(c3_c1o2@co2)|Zn4O_benz/gaussian->(c3_c1o2@co2)|Zn4O_benz <--> buck6d->(c4_c1h2o1@me)|ph-O-butyl/gaussian->(c4_c1h2o1@me)|ph-O-butyl
pair_coeff     7    10       7154.7377       3.0150754       347.74176       5.5933807      0.60800605    # buck6d->(c3_c1o2@co2)|Zn4O_benz/gaussian->(c3_c1o2@co2)|Zn4O_benz <--> buck6d->(c4_c1h3@me)|butane/gaussian->(c4_c1h3@me)|butane
pair_coeff     7    11       10576.399       3.1914894       365.45138       2.5231391      0.61998309    # buck6d->(c3_c1o2@co2)|Zn4O_benz/gaussian->(c3_c1o2@co2)|Zn4O_benz <--> buck6d->(o4_zn4@zn4o)|Zn4O_benz/gaussian->(o4_zn4@zn4o)|Zn4O_benz
pair_coeff     7    12       10576.399       3.1914894       365.45138       2.5231391       0.6199956    # buck6d->(c3_c1o2@co2)|Zn4O_benz/gaussian->(c3_c1o2@co2)|Zn4O_benz <--> buck6d->(o2_c2@eth)|ph-O-butyl/gaussian->(o2_c2@eth)|ph-O-butyl
pair_coeff     7    13       10576.399       3.1914894       365.45138       2.5231391      0.61998309    # buck6d->(c3_c1o2@co2)|Zn4O_benz/gaussian->(c3_c1o2@co2)|Zn4O_benz <--> buck6d->(o2_c1zn1@co2)|Zn4O_benz/gaussian->(o2_c1zn1@co2)|Zn4O_benz
pair_coeff     8     8            4968       2.9411765       280.22525       7.9168726      0.60800971    # buck6d->(c4_c2h2@me)|butane/gaussian->(c4_c2h2@me)|butane <--> buck6d->(c4_c2h2@me)|butane/gaussian->(c4_c2h2@me)|butane
pair_coeff     8     9            4968       2.9411765       280.22525       7.9168726      0.60800971    # buck6d->(c4_c2h2@me)|butane/gaussian->(c4_c2h2@me)|butane <--> buck6d->(c4_c1h2o1@me)|ph-O-butyl/gaussian->(c4_c1h2o1@me)|ph-O-butyl
pair_coeff     8    10            4968       2.9411765       280.22525       7.9168726      0.60800971    # buck6d->(c4_c2h2@me)|butane/gaussian->(c4_c2h2@me)|butane <--> buck6d->(c4_c1h3@me)|butane/gaussian->(c4_c1h3@me)|butane
pair_coeff     8    11       7343.8824       3.1088083       297.03952       3.6436247      0.61998697    # buck6d->(c4_c2h2@me)|butane/gaussian->(c4_c2h2@me)|butane <--> buck6d->(o4_zn4@zn4o)|Zn4O_benz/gaussian->(o4_zn4@zn4o)|Zn4O_benz
pair_coeff     8    12       7343.8824       3.1088083       297.03952       3.6436247      0.61999948    # buck6d->(c4_c2h2@me)|butane/gaussian->(c4_c2h2@me)|butane <--> buck6d->(o2_c2@eth)|ph-O-butyl/gaussian->(o2_c2@eth)|ph-O-butyl
pair_coeff     8    13       7343.8824       3.1088083       297.03952       3.6436247      0.61998697    # buck6d->(c4_c2h2@me)|butane/gaussian->(c4_c2h2@me)|butane <--> buck6d->(o2_c1zn1@co2)|Zn4O_benz/gaussian->(o2_c1zn1@co2)|Zn4O_benz
pair_coeff     9     9            4968       2.9411765       280.22525       7.9168726      0.60800971    # buck6d->(c4_c1h2o1@me)|ph-O-butyl/gaussian->(c4_c1h2o1@me)|ph-O-butyl <--> buck6d->(c4_c1h2o1@me)|ph-O-butyl/gaussian->(c4_c1h2o1@me)|ph-O-butyl
pair_coeff     9    10            4968       2.9411765       280.22525       7.9168726      0.60800971    # buck6d->(c4_c1h2o1@me)|ph-O-butyl/gaussian->(c4_c1h2o1@me)|ph-O-butyl <--> buck6d->(c4_c1h3@me)|butane/gaussian->(c4_c1h3@me)|butane
pair_coeff     9    11       7343.8824       3.1088083       297.03952       3.6436247      0.61998697    # buck6d->(c4_c1h2o1@me)|ph-O-butyl/gaussian->(c4_c1h2o1@me)|ph-O-butyl <--> buck6d->(o4_zn4@zn4o)|Zn4O_benz/gaussian->(o4_zn4@zn4o)|Zn4O_benz
pair_coeff     9    12       7343.8824       3.1088083       297.03952       3.6436247      0.61999948    # buck6d->(c4_c1h2o1@me)|ph-O-butyl/gaussian->(c4_c1h2o1@me)|ph-O-butyl <--> buck6d->(o2_c2@eth)|ph-O-butyl/gaussian->(o2_c2@eth)|ph-O-butyl
pair_coeff     9    13       7343.8824       3.1088083       297.03952       3.6436247      0.61998697    # buck6d->(c4_c1h2o1@me)|ph-O-butyl/gaussian->(c4_c1h2o1@me)|ph-O-butyl <--> buck6d->(o2_c1zn1@co2)|Zn4O_benz/gaussian->(o2_c1zn1@co2)|Zn4O_benz
pair_coeff    10    10            4968       2.9411765       280.22525       7.9168726      0.60800971    # buck6d->(c4_c1h3@me)|butane/gaussian->(c4_c1h3@me)|butane <--> buck6d->(c4_c1h3@me)|butane/gaussian->(c4_c1h3@me)|butane
pair_coeff    10    11       7343.8824       3.1088083       297.03952       3.6436247      0.61998697    # buck6d->(c4_c1h3@me)|butane/gaussian->(c4_c1h3@me)|butane <--> buck6d->(o4_zn4@zn4o)|Zn4O_benz/gaussian->(o4_zn4@zn4o)|Zn4O_benz
pair_coeff    10    12       7343.8824       3.1088083       297.03952       3.6436247      0.61999948    # buck6d->(c4_c1h3@me)|butane/gaussian->(c4_c1h3@me)|butane <--> buck6d->(o2_c2@eth)|ph-O-butyl/gaussian->(o2_c2@eth)|ph-O-butyl
pair_coeff    10    13       7343.8824       3.1088083       297.03952       3.6436247      0.61998697    # buck6d->(c4_c1h3@me)|butane/gaussian->(c4_c1h3@me)|butane <--> buck6d->(o2_c1zn1@co2)|Zn4O_benz/gaussian->(o2_c1zn1@co2)|Zn4O_benz
pair_coeff    11    11           10856       3.2967033        308.7755       1.6022517      0.63270113    # buck6d->(o4_zn4@zn4o)|Zn4O_benz/gaussian->(o4_zn4@zn4o)|Zn4O_benz <--> buck6d->(o4_zn4@zn4o)|Zn4O_benz/gaussian->(o4_zn4@zn4o)|Zn4O_benz
pair_coeff    11    12           10856       3.2967033        308.7755       1.6022517      0.63271443    # buck6d->(o4_zn4@zn4o)|Zn4O_benz/gaussian->(o4_zn4@zn4o)|Zn4O_benz <--> buck6d->(o2_c2@eth)|ph-O-butyl/gaussian->(o2_c2@eth)|ph-O-butyl
pair_coeff    11    13           10856       3.2967033        308.7755       1.6022517      0.63270113    # buck6d->(o4_zn4@zn4o)|Zn4O_benz/gaussian->(o4_zn4@zn4o)|Zn4O_benz <--> buck6d->(o2_c1zn1@co2)|Zn4O_benz/gaussian->(o2_c1zn1@co2)|Zn4O_benz
pair_coeff    12    12           10856       3.2967033        308.7755       1.6022517      0.63272774    # buck6d->(o2_c2@eth)|ph-O-butyl/gaussian->(o2_c2@eth)|ph-O-butyl <--> buck6d->(o2_c2@eth)|ph-O-butyl/gaussian->(o2_c2@eth)|ph-O-butyl
pair_coeff    12    13           10856       3.2967033        308.7755       1.6022517      0.63271443    # buck6d->(o2_c2@eth)|ph-O-butyl/gaussian->(o2_c2@eth)|ph-O-butyl <--> buck6d->(o2_c1zn1@co2)|Zn4O_benz/gaussian->(o2_c1zn1@co2)|Zn4O_benz
pair_coeff    13    13           10856       3.2967033        308.7755       1.6022517      0.63270113    # buck6d->(o2_c1zn1@co2)|Zn4O_benz/gaussian->(o2_c1zn1@co2)|Zn4O_benz <--> buck6d->(o2_c1zn1@co2)|Zn4O_benz/gaussian->(o2_c1zn1@co2)|Zn4O_benz

bond_style hybrid class2 morse harmonic

bond_coeff    13 class2     1.529408   314.283599  -801.423177  1192.116976    # mm3->(c4_c2h2@me,c4_c2h2@me)|butane
bond_coeff     8 class2     1.394074   455.360160 -1161.168407  1727.238006    # mm3->(c3_c2h1@ph,c3_c2o1@ph)|ph-O-butyl
bond_coeff     4 class2     1.101213   365.915223  -933.083819  1387.962181    # mm3->(c4_c2h2@me,h1_c1@me)|butane
bond_coeff     9 class2     1.488000   355.167780  -905.677839  1347.195786    # mm3->(c3_c1o2@co2,c3_c3@ph)|Zn4O_benz
bond_coeff     3 class2     1.094000   390.634200  -996.117210  1481.724350    # mm3->(c3_c2h1@ph,h1_c1@ph)|benzene
bond_coeff     6 class2     1.099390   374.841138  -955.844901  1421.819290    # mm3->(c4_c1h3@me,h1_c1@me)|butane
bond_coeff    10 class2     1.357631   390.806068  -996.555472  1482.376265    # mm3->(c3_c2o1@ph,o2_c2@eth)|ph-O-butyl
bond_coeff     1 morse    50.000000    1.463685     1.987000    # morse->(o4_zn4@zn4o,zn4_o4@zn4o)|Zn4O_benz
bond_coeff    12 class2     1.515294   290.719566  -741.334894  1102.735655    # mm3->(c4_c1h2o1@me,c4_c2h2@me)|ph-O-butyl
bond_coeff     5 class2     1.101119   356.182160  -908.264508  1351.043455    # mm3->(c4_c1h2o1@me,h1_c1@me)|ph-O-butyl
bond_coeff     7 class2     1.394000   509.335200 -1298.804760  1931.972080    # mm3->(c3_c2h1@ph,c3_c2h1@ph)|benzene
bond_coeff    14 class2     1.427071   299.914044  -764.780811  1137.611457    # mm3->(c4_c1h2o1@me,o2_c2@eth)|ph-O-butyl
bond_coeff    15 class2     1.529182   318.631885  -812.511306  1208.610568    # mm3->(c4_c1h3@me,c4_c2h2@me)|butane
bond_coeff     2 morse    50.000000    1.547773     1.917000    # morse->(o2_c1zn1@co2,zn4_o4@zn4o)|Zn4O_benz
bond_coeff    11 class2     1.275000   620.986080 -1583.514504  2355.477825    # mm3->(c3_c1o2@co2,o2_c1zn1@co2)|Zn4O_benz

angle_style hybrid class2/p6 cosine/buck6d

angle_coeff    25 class2/p6      113.257375    69.461048   -55.717548    12.769521    -9.145496    16.468519    # mm3->(c3_c2o1@ph,o2_c2@eth,c4_c1h2o1@me)|ph-O-butyl
angle_coeff    25 class2/p6 bb 0.0 1.0 1.0
angle_coeff    25 class2/p6 ba 0.0 0.0 1.0 1.0
angle_coeff    26 class2/p6      135.606000     6.762360    -5.424366     1.243173    -0.890357     1.603288    # mm3->(c3_c1o2@co2,o2_c1zn1@co2,zn4_o4@zn4o)|Zn4O_benz
angle_coeff    26 class2/p6 bb 0.0 1.0 1.0
angle_coeff    26 class2/p6 ba 0.0 0.0 1.0 1.0
angle_coeff    18 class2/p6      116.818943    25.946625   -20.812849     4.769954    -3.416228     6.151685    # mm3->(h1_c1@me,c4_c1h2o1@me,o2_c2@eth)|ph-O-butyl
angle_coeff    18 class2/p6 bb 0.0 1.0 1.0
angle_coeff    18 class2/p6 ba 0.0 0.0 1.0 1.0
angle_coeff     4 class2/p6      117.296000    57.983640   -46.511050    10.659547    -7.634339    13.747340    # mm3->(c3_c1o2@co2,c3_c3@ph,c3_c2h1@ph)|Zn4O_benz
angle_coeff     4 class2/p6 bb 0.0 1.0 1.0
angle_coeff     4 class2/p6 ba 0.0 0.0 1.0 1.0
angle_coeff     6 class2/p6      120.350000    36.185820   -29.026127     6.652298    -4.764358     8.579296    # mm3->(c3_c2h1@ph,c3_c2h1@ph,h1_c1@ph)|benzene
angle_coeff     6 class2/p6 bb    93.378120     1.394000     1.094000
angle_coeff     6 class2/p6 ba   -25.179000    53.523360     1.394000     1.094000
angle_coeff     1 class2/p6      113.584000     0.000000    -0.000000     0.000000    -0.000000     0.000000    # mm3->(o2_c1zn1@co2,zn4_o4@zn4o,o4_zn4@zn4o)|Zn4O_benz
angle_coeff     1 class2/p6 bb     0.000000     1.917000     1.987000
angle_coeff     1 class2/p6 ba     0.000000     0.000000     1.917000     1.987000
angle_coeff    17 class2/p6      118.378973    29.889438   -23.975541     5.494789    -3.935353     7.086487    # mm3->(c4_c2h2@me,c4_c1h2o1@me,h1_c1@me)|ph-O-butyl
angle_coeff    17 class2/p6 bb 0.0 1.0 1.0
angle_coeff    17 class2/p6 ba 0.0 0.0 1.0 1.0
angle_coeff    23 class2/p6      113.161464    65.779678   -52.764571    12.092749    -8.660793    15.595703    # mm3->(c4_c1h3@me,c4_c2h2@me,c4_c2h2@me)|butane
angle_coeff    23 class2/p6 bb 0.0 1.0 1.0
angle_coeff    23 class2/p6 ba 0.0 0.0 1.0 1.0
angle_coeff    11 class2/p6      123.006000   111.866700   -89.732857    20.565256   -14.728780    26.522474    # mm3->(o2_c1zn1@co2,c3_c1o2@co2,o2_c1zn1@co2)|Zn4O_benz
angle_coeff    11 class2/p6 bb 0.0 1.0 1.0
angle_coeff    11 class2/p6 ba 0.0 0.0 1.0 1.0
angle_coeff    22 class2/p6      110.602540    44.106999   -35.380028     8.108505    -5.807289    10.457328    # mm3->(c4_c1h3@me,c4_c2h2@me,h1_c1@me)|butane
angle_coeff    22 class2/p6 bb 0.0 1.0 1.0
angle_coeff    22 class2/p6 ba 0.0 0.0 1.0 1.0
angle_coeff    13 class2/p6      110.342401    30.766657   -24.679194     5.656055    -4.050851     7.294466    # mm3->(c4_c1h2o1@me,c4_c2h2@me,h1_c1@me)|ph-O-butyl
angle_coeff    13 class2/p6 bb 0.0 1.0 1.0
angle_coeff    13 class2/p6 ba 0.0 0.0 1.0 1.0
angle_coeff     7 class2/p6      117.983314    23.459678   -18.817967     4.312760    -3.088787     5.562055    # mm3->(c3_c2o1@ph,c3_c2h1@ph,h1_c1@ph)|ph-O-butyl
angle_coeff     7 class2/p6 bb 0.0 1.0 1.0
angle_coeff     7 class2/p6 ba 0.0 0.0 1.0 1.0
angle_coeff    16 class2/p6      114.761173    31.409569   -25.194901     5.774246    -4.135499     7.446894    # mm3->(h1_c1@me,c4_c1h2o1@me,h1_c1@me)|ph-O-butyl
angle_coeff    16 class2/p6 bb 0.0 1.0 1.0
angle_coeff    16 class2/p6 ba 0.0 0.0 1.0 1.0
angle_coeff    24 class2/p6      103.992000    50.214120   -40.278800     9.231221    -6.611375    11.905265    # mm3->(zn4_o4@zn4o,o4_zn4@zn4o,zn4_o4@zn4o)|Zn4O_benz
angle_coeff    24 class2/p6 bb     7.625640     1.987000     1.987000
angle_coeff    24 class2/p6 ba    18.416640    18.416640     1.987000     1.987000
angle_coeff    10 class2/p6      116.368000    77.191620   -61.918557    14.190688   -10.163332    18.301360    # mm3->(c3_c3@ph,c3_c1o2@co2,o2_c1zn1@co2)|Zn4O_benz
angle_coeff    10 class2/p6 bb 0.0 1.0 1.0
angle_coeff    10 class2/p6 ba 0.0 0.0 1.0 1.0
angle_coeff    14 class2/p6      110.134130    42.675831   -34.232030     7.845403    -5.618856    10.118012    # mm3->(c4_c2h2@me,c4_c2h2@me,h1_c1@me)|butane
angle_coeff    14 class2/p6 bb 0.0 1.0 1.0
angle_coeff    14 class2/p6 ba 0.0 0.0 1.0 1.0
angle_coeff     2 class2/p6      123.103000     5.755200    -4.616481     1.058020    -0.757751     1.364500    # mm3->(o2_c1zn1@co2,zn4_o4@zn4o,o2_c1zn1@co2)|Zn4O_benz
angle_coeff     2 class2/p6 bb 0.0 1.0 1.0
angle_coeff     2 class2/p6 ba 0.0 0.0 1.0 1.0
angle_coeff     9 class2/p6      144.582528    30.574828   -24.525320     5.620789    -4.025594     7.248986    # mm3->(c3_c2h1@ph,c3_c2o1@ph,c3_c2h1@ph)|ph-O-butyl
angle_coeff     9 class2/p6 bb 0.0 1.0 1.0
angle_coeff     9 class2/p6 ba 0.0 0.0 1.0 1.0
angle_coeff    20 class2/p6      107.691286    37.470927   -30.056964     6.888549    -4.933560     8.883982    # mm3->(h1_c1@me,c4_c1h3@me,h1_c1@me)|butane
angle_coeff    20 class2/p6 bb 0.0 1.0 1.0
angle_coeff    20 class2/p6 ba 0.0 0.0 1.0 1.0
angle_coeff    12 class2/p6      107.271015    38.858990   -31.170386     7.143726    -5.116317     9.213077    # mm3->(h1_c1@me,c4_c2h2@me,h1_c1@me)|butane
angle_coeff    12 class2/p6 bb 0.0 1.0 1.0
angle_coeff    12 class2/p6 ba 0.0 0.0 1.0 1.0
angle_coeff     5 class2/p6      117.296000    57.983640   -46.511050    10.659547    -7.634339    13.747340    # mm3->(c3_c1o2@co2,c3_c3@ph,c3_c2o1@ph)|Zn4O_benz
angle_coeff     5 class2/p6 bb 0.0 1.0 1.0
angle_coeff     5 class2/p6 ba 0.0 0.0 1.0 1.0
angle_coeff    21 class2/p6      110.959949    44.958991   -36.063446     8.265133    -5.919465    10.659326    # mm3->(c4_c2h2@me,c4_c1h3@me,h1_c1@me)|butane
angle_coeff    21 class2/p6 bb 0.0 1.0 1.0
angle_coeff    21 class2/p6 ba 0.0 0.0 1.0 1.0
angle_coeff     8 class2/p6      159.969859     8.440703    -6.770633     1.551715    -1.111334     2.001206    # mm3->(c3_c2h1@ph,c3_c2o1@ph,o2_c2@eth)|ph-O-butyl
angle_coeff     8 class2/p6 bb 0.0 1.0 1.0
angle_coeff     8 class2/p6 ba 0.0 0.0 1.0 1.0
angle_coeff     3 class2/p6      126.007089    47.182599   -37.847093     8.673915    -6.212234    11.186522    # mm3->(c3_c2h1@ph,c3_c2h1@ph,c3_c2o1@ph)|ph-O-butyl
angle_coeff     3 class2/p6 bb 0.0 1.0 1.0
angle_coeff     3 class2/p6 ba 0.0 0.0 1.0 1.0
angle_coeff    15 class2/p6      113.161464    65.779678   -52.764571    12.092749    -8.660793    15.595703    # mm3->(c4_c1h2o1@me,c4_c2h2@me,c4_c2h2@me)|butane
angle_coeff    15 class2/p6 bb 0.0 1.0 1.0
angle_coeff    15 class2/p6 ba 0.0 0.0 1.0 1.0
angle_coeff    19 class2/p6      114.447479    32.354254   -25.952671     5.947914    -4.259880     7.670870    # mm3->(c4_c2h2@me,c4_c1h2o1@me,o2_c2@eth)|ph-O-butyl
angle_coeff    19 class2/p6 bb 0.0 1.0 1.0
angle_coeff    19 class2/p6 ba 0.0 0.0 1.0 1.0

dihedral_style opls

dihedral_coeff     5     0.000000     5.972000     0.000000     0.000000    # cos3->(c3_c2o1@ph,c3_c2h1@ph,c3_c2h1@ph,c3_c2o1@ph)|ph-O-butyl
dihedral_coeff    18     0.000000     3.012000     0.000000     0.000000    # cos3->(c3_c3@ph,c3_c1o2@co2,o2_c1zn1@co2,zn4_o4@zn4o)|Zn4O_benz
dihedral_coeff    19     0.000000     0.076000     0.000000     0.000000    # cos3->(o2_c1zn1@co2,c3_c1o2@co2,o2_c1zn1@co2,zn4_o4@zn4o)|Zn4O_benz
dihedral_coeff     9     0.000000     5.972000     0.000000     0.000000    # cos3->(c3_c2h1@ph,c3_c2o1@ph,c3_c2h1@ph,c3_c2h1@ph)|ph-O-butyl
dihedral_coeff     7     0.000000     0.000000     0.000000     0.000000    # cos3->(c3_c2o1@ph,c3_c2h1@ph,c3_c3@ph,c3_c1o2@co2)|Zn4O_benz
dihedral_coeff    28     0.000000     0.000000     0.010079     0.000000    # cos3->(h1_c1@me,c4_c1h2o1@me,o2_c2@eth,c3_c2o1@ph)|ph-O-butyl
dihedral_coeff    14     0.000000     5.117273     0.000000     0.000000    # cos3->(h1_c1@ph,c3_c2h1@ph,c3_c2o1@ph,c3_c2h1@ph)|ph-O-butyl
dihedral_coeff    21     0.000000     0.000000     0.514450     0.000000    # cos3->(o2_c2@eth,c4_c1h2o1@me,c4_c2h2@me,h1_c1@me)|ph-O-butyl
dihedral_coeff    10     0.000000     5.000000     0.000000     0.000000    # cos3->(c3_c1o2@co2,c3_c2h1@ph,c3_c2o1@ph,o2_c2@eth)|co2-ph-o-me
dihedral_coeff     8     0.000000     6.281542     0.000000     0.000000    # cos3->(c3_c2h1@ph,c3_c2h1@ph,c3_c2o1@ph,o2_c2@eth)|ph-O-prop
dihedral_coeff    11     0.000000     0.000000     0.000000     0.000000    # cos3->(c3_c2h1@ph,c3_c2o1@ph,c3_c3@ph,c3_c1o2@co2)|Zn4O_benz
dihedral_coeff    27    -0.370853    -0.236138     1.970124     0.000000    # cos3->(c4_c1h2o1@me,c4_c2h2@me,c4_c2h2@me,c4_c1h3@me)|butane
dihedral_coeff    31     0.000000     0.000000     0.870477     0.000000    # cos3->(h1_c1@me,c4_c1h3@me,c4_c2h2@me,c4_c2h2@me)|butane
dihedral_coeff    30     0.000000     0.000000     0.343076     0.000000    # cos3->(h1_c1@me,c4_c1h3@me,c4_c2h2@me,h1_c1@me)|butane
dihedral_coeff    16     0.000000     3.664689     0.000000     0.000000    # cos3->(c3_c2h1@ph,c3_c2h1@ph,c3_c2o1@ph,c3_c2h1@ph)|ph-O-butyl
dihedral_coeff    13     0.000000     1.902000     0.000000     0.000000    # cos3->(o2_c1zn1@co2,c3_c1o2@co2,c3_c3@ph,c3_c2o1@ph)|Zn4O_benz
dihedral_coeff    24     0.000000     0.000000     0.302052     0.000000    # cos3->(h1_c1@me,c4_c2h2@me,c4_c2h2@me,h1_c1@me)|butane
dihedral_coeff    29     0.803729    -0.768357     1.298183     0.000000    # cos3->(c4_c2h2@me,c4_c1h2o1@me,o2_c2@eth,c3_c2o1@ph)|ph-O-butyl
dihedral_coeff    23    -1.702642    -0.327922     0.811155     0.000000    # cos3->(o2_c2@eth,c4_c1h2o1@me,c4_c2h2@me,c4_c2h2@me)|ph-O-butyl
dihedral_coeff    25     0.000000     0.000000    -0.052641     0.000000    # cos3->(c4_c1h3@me,c4_c2h2@me,c4_c2h2@me,h1_c1@me)|butane
dihedral_coeff     4     0.000000     6.045595     0.000000     0.000000    # cos3->(c3_c2o1@ph,c3_c2h1@ph,c3_c2h1@ph,h1_c1@ph)|ph-O-butyl
dihedral_coeff     6     0.000000     0.000000     0.000000     0.000000    # cos3->(h1_c1@ph,c3_c2h1@ph,c3_c3@ph,c3_c1o2@co2)|Zn4O_benz
dihedral_coeff    15     0.000000     3.982172     0.000000     0.000000    # cos3->(h1_c1@ph,c3_c2h1@ph,c3_c2o1@ph,o2_c2@eth)|ph-O-butyl
dihedral_coeff     1     0.000000     0.000000     0.000000     0.000000    # cos3->(zn4_o4@zn4o,o4_zn4@zn4o,zn4_o4@zn4o,o2_c1zn1@co2)|Zn4O_benz
dihedral_coeff     3     0.000000     0.000000     0.000000     0.000000    # cos3->(c3_c1o2@co2,o2_c1zn1@co2,zn4_o4@zn4o,o2_c1zn1@co2)|Zn4O_benz
dihedral_coeff    26     0.000000     0.000000    -0.052641     0.000000    # cos3->(c4_c1h2o1@me,c4_c2h2@me,c4_c2h2@me,h1_c1@me)|butane
dihedral_coeff     2     0.000000     0.000000     0.000000     0.000000    # cos3->(c3_c1o2@co2,o2_c1zn1@co2,zn4_o4@zn4o,o4_zn4@zn4o)|Zn4O_benz
dihedral_coeff    17     4.763804     2.750105     0.191432     0.000000    # cos3->(c3_c2h1@ph,c3_c2o1@ph,o2_c2@eth,c4_c1h2o1@me)|ph-O-butyl
dihedral_coeff    20     0.000000     0.000000     0.037991     0.000000    # cos3->(h1_c1@me,c4_c1h2o1@me,c4_c2h2@me,h1_c1@me)|ph-O-butyl
dihedral_coeff    12     0.000000     1.902000     0.000000     0.000000    # cos3->(o2_c1zn1@co2,c3_c1o2@co2,c3_c3@ph,c3_c2h1@ph)|Zn4O_benz
dihedral_coeff    22     0.000000     0.000000     0.343642     0.000000    # cos3->(h1_c1@me,c4_c1h2o1@me,c4_c2h2@me,c4_c2h2@me)|ph-O-butyl

improper_style inversion/harmonic

improper_coeff     2     3.563253     0.000000    # harm->(c3_c2h1@ph,c3_c2h1@ph,c3_c2o1@ph,h1_c1@ph)|ph-O-butyl
improper_coeff     4    40.574160     0.000000    # harm->(c3_c1o2@co2,c3_c3@ph,o2_c1zn1@co2,o2_c1zn1@co2)|Zn4O_benz
improper_coeff     3     0.000000     0.000000    # harm->(c3_c2o1@ph,c3_c2h1@ph,c3_c2h1@ph,o2_c2@eth)|ph-O-butyl
improper_coeff     1     0.000000     0.000000    # harm->(c3_c2h1@ph,c3_c1o2@co2,c3_c2h1@ph,c3_c2o1@ph)|xxx

special_bonds lj 0.00 0.00 1.00 coul 1.00 1.00 1.00
Finding 1-2 1-3 1-4 neighbors ...
  special bond factors lj:    0        0        1       
  special bond factors coul:  1        1        1       
     4 = max # of 1-2 neighbors
    12 = max # of 1-3 neighbors
    22 = max # of special neighbors
  special bonds CPU = 0.001 seconds




change_box all  triclinic
Changing box ...
  triclinic box = (0.0000000 0.0000000 0.0000000) to (51.703312 51.703314 51.703314) with tilt (0.0000000 0.0000000 0.0000000)
kspace_style pppm      1e-06
# ------------------------ MOF-FF FORCE FIELD END --------------------------


min_style		cg
minimize		0.0 1.0e-8 1000 10000
WARNING: Using 'neigh_modify every 1 delay 0 check yes' setting during minimization (../min.cpp:188)
PPPM initialization ...
  using 12-bit tables for long-range coulomb (../kspace.cpp:340)
  G vector (1/distance) = 0.26888087
  grid = 48 48 48
  stencil order = 5
  estimated absolute RMS force accuracy = 0.00031856066
  estimated relative force accuracy = 9.5933598e-07
  using double precision FFTW3
  3d grid and FFT values/proc = 8246 2016
Neighbor list info ...
  update every 1 steps, delay 0 steps, check yes
  max neighbors/atom: 2000, page size: 100000
  master list distance cutoff = 14
  ghost atom cutoff = 14
  binsize = 7, bins = 8 8 8
  1 neighbor lists, perpetual/occasional/extra = 1 0 0
  (1) pair buck6d/coul/gauss/long, perpetual
      attributes: half, newton on
      pair build: half/bin/newton/tri
      stencil: half/bin/3d/tri
      bin: standard
WARNING: Inconsistent image flags (../domain.cpp:814)
Per MPI rank memory allocation (min/avg/max) = 23.58 | 23.65 | 23.85 Mbytes
Step Temp E_pair E_mol TotEng Press 
       0            0   -119433.73    32118.633   -87315.097   -24973.003 
    1000            0   -119788.01    14753.381   -105034.63   0.55676402 
Loop time of 26.0617 on 56 procs for 1000 steps with 8384 atoms

97.7% CPU use with 56 MPI tasks x no OpenMP threads

Minimization stats:
  Stopping criterion = max iterations
  Energy initial, next-to-last, final = 
     -87315.0966070014  -105034.582240311  -105034.629686677
  Force two-norm initial, final = 6925.3771 8.9696311
  Force max component initial, final = 248.01747 0.35278347
  Final line search alpha, max atom move = 0.021600934 0.0076204526
  Iterations, force evaluations = 1000 1997

MPI task timing breakdown:
Section |  min time  |  avg time  |  max time  |%varavg| %total
---------------------------------------------------------------
Pair    | 16.077     | 19.268     | 22.004     |  33.6 | 73.93
Bond    | 0.58823    | 0.8183     | 1.0199     |  16.3 |  3.14
Kspace  | 2.6352     | 5.5798     | 9.0126     |  68.3 | 21.41
Neigh   | 0.028878   | 0.029227   | 0.029874   |   0.1 |  0.11
Comm    | 0.27742    | 0.30993    | 0.34222    |   3.8 |  1.19
Output  | 4.2915e-05 | 4.4052e-05 | 7.2002e-05 |   0.0 |  0.00
Modify  | 0          | 0          | 0          |   0.0 |  0.00
Other   |            | 0.05671    |            |       |  0.22

Nlocal:        149.714 ave         167 max         134 min
Histogram: 12 0 4 12 0 4 0 20 0 4
Nghost:        4891.07 ave        5011 max        4679 min
Histogram: 4 4 0 0 4 8 16 0 4 16
Neighs:        51231.3 ave       58133 max       45171 min
Histogram: 4 8 4 12 0 0 16 8 0 4

Total # of neighbors = 2868952
Ave neighs/atom = 342.19370
Ave special neighs/atom = 6.1984733
Neighbor list builds = 8
Dangerous builds = 0

velocity     	all create 301 3204550 dist gaussian mom yes rot no

#-----------------------------------------------------------------------------
variable        N      equal step
variable        T      equal temp
variable		R		equal 0.00198722
variable		sysvol		equal vol
variable		sysmass		equal mass(all)/6.0221367e+23
variable		sysdensity	equal v_sysmass/v_sysvol/1.0e-24
variable		coulomb		equal ecoul+elong
variable		etotal		equal etotal
variable		pe		equal pe
variable		ke		equal ke
variable		evdwl		equal evdwl
variable		epair		equal epair
variable		ebond		equal ebond
variable		eangle		equal eangle
variable		edihed		equal edihed
variable		eimp		equal eimp
variable		lx		equal lx
variable		ly		equal ly
variable		lz		equal lz
variable		Nthermo		equal 0
variable		cella		equal lx
variable		cellb		equal sqrt(ly*ly+xy*xy)
variable		cellc		equal sqrt(lz*lz+xz*xz+yz*yz)
variable		cellalpha	equal acos((xy*xz+ly*yz)/(v_cellb*v_cellc))
variable		cellbeta	equal acos(xz/v_cellc)
variable		cellgamma	equal acos(xy/v_cellb)
variable		p		equal press
variable		pxx		equal pxx
variable		pyy		equal pyy
variable		pzz		equal pzz
variable		pyz		equal pyz
variable		pxz		equal pxz
variable		pxy		equal pxy
variable		sxx		equal -pxx
variable		syy		equal -pyy
variable		szz		equal -pzz
variable		syz		equal -pyz
variable		sxz		equal -pxz
variable		sxy		equal -pxy
variable		enthalpy    equal enthalpy
variable		fmax		equal fmax
variable	        fnorm		equal fnorm
variable		time equal step*dt+0.000001
variable		surfacetension equal 0.5*v_lz*(0.5*(v_sxx+v_syy)-v_szz)


#-------------------------------------------------------------------------------
timestep	    1
thermo_style custom step evdwl ebond eangle edihed eimp pe ke etotal temp press vol v_coulomb enthalpy spcpu
thermo 1000

variable        TEMP        equal 301

fix             1 all npt temp  ${TEMP} ${TEMP} 100  tri  0 0 1000
fix             1 all npt temp  301 ${TEMP} 100  tri  0 0 1000
fix             1 all npt temp  301 301 100  tri  0 0 1000
run		100000
PPPM initialization ...
  using 12-bit tables for long-range coulomb (../kspace.cpp:340)
  G vector (1/distance) = 0.26888087
  grid = 48 48 48
  stencil order = 5
  estimated absolute RMS force accuracy = 0.00031856066
  estimated relative force accuracy = 9.5933598e-07
  using double precision FFTW3
  3d grid and FFT values/proc = 8246 2016
WARNING: Inconsistent image flags (../domain.cpp:814)
Per MPI rank memory allocation (min/avg/max) = 22.47 | 22.54 | 22.74 Mbytes
Step E_vdwl E_bond E_angle E_dihed E_impro PotEng KinEng TotEng Temp Press Volume v_coulomb Enthalpy S/CPU 
    1000   -529.78398    315.09446    11490.531    2943.5238    4.2316512   -105034.63    7521.4273   -97513.202          301    2488.1421    138214.98   -119258.23   -92497.795            0 
    2000   -166.03404    3326.5867    14634.502    4189.4631    135.76885   -97019.801    7849.5057   -89170.295    314.12937    33.556594    136888.54   -119140.09   -89103.303    71.154187 
    3000   -164.47281    3240.1366    14500.593    4079.1405    146.08189   -97336.125     7408.583   -89927.542    296.48408   -663.61711    136993.55    -119137.6    -91253.39     69.68743 
    4000   -67.851294    3354.6397    14506.373    4028.4363    155.19635   -97203.936    7567.3964   -89636.539    302.83964   -561.15339    137409.43   -119180.73   -90761.077    68.699069 
    5000   -120.20602    3252.6533    14521.055    4089.8579    148.29794    -97272.82    7547.9637   -89724.856    302.06196    386.59113    137208.63   -119164.48   -88951.269    65.742239 
    6000   -101.26926     3214.189    14553.119    4056.1536    140.36431   -97325.537    7461.8614   -89863.675    298.61623    278.23849     137286.2   -119188.09   -89306.592    66.078332 
    7000     -139.017    3209.6899    14546.064    4081.0091    137.85954   -97301.604    7713.2426   -89588.361    308.67625    406.66871     137622.7   -119137.21   -88772.142    68.538057 
    8000   -78.468361    3259.7781    14517.617    4016.2183     130.5553   -97331.592    7507.5968   -89823.996    300.44652   -55.329412    137684.47   -119177.29   -89935.096    68.867445 
    9000   -93.261949    3338.4571    14529.698    4031.7211    140.84724   -97245.441    7511.2236   -89734.217    300.59166   -156.38803    137435.79    -119192.9   -90047.675    65.541335 
   10000   -85.699527    3334.0266    14638.829    4029.4335    144.55879    -97184.11    7532.4574   -89651.653    301.44141   -152.22821    137418.53   -119245.26   -89956.734    66.074659 
   11000   -35.132756    3145.3058    14508.689    4039.1603    152.46664    -97322.58     7491.515   -89831.065    299.80294    271.78888    137812.17   -119133.07   -89284.811    65.900694 
   12000   -117.41663    3153.5724    14519.404     4004.237    128.05613   -97473.173    7483.5396   -89989.633    299.48377    366.82419    137647.57   -119161.03   -89253.253    65.380595 
   13000   -94.032154    3237.4851    14539.614    3953.3117    132.77819   -97414.878    7604.4467   -89810.432    304.32235   -262.95934    138544.16   -119184.04   -90341.748     67.09595 
   14000   -93.194427    3246.9876     14631.32     3994.919    146.16076    -97226.45    7474.8816   -89751.568    299.13729   -409.66978    137848.25   -119152.64   -90575.158    68.444031 
   15000   -89.790941    3219.4939    14631.898    3860.1765    137.81408   -97369.878    7359.4547   -90010.424    294.51802   -254.33602    138022.66   -119129.47   -90522.381    66.909965 
   16000   -56.995278    3185.7687    14516.493    3957.4889    137.66119   -97369.878     7541.455   -89828.423    301.80149    21.219718    138231.57   -119110.29   -89785.645    66.201311 
   17000   -70.935318    3187.7711    14627.644     3876.272    130.67057   -97392.338    7495.5436   -89896.794    299.96416    217.97066    138164.51   -119143.76   -89457.586    65.921773 
   18000      3.81092    3189.1967    14587.978    3770.7493    134.48981   -97400.921    7623.1981   -89777.723    305.07277   -270.79866    138020.85   -119087.15   -90322.811    69.020953 
   19000   -47.820046     3170.771    14591.492    3865.8299    130.37989   -97435.302    7489.0836   -89946.219    299.70564     641.1708    137252.92   -119145.96   -88662.792    66.636578 
   20000    -14.76759    3180.2244    14562.975    3826.6276    142.30678   -97417.086    7555.5371   -89861.549    302.36504    633.28844    137761.91   -119114.45   -88589.199    66.342904 
   21000   -84.079779    3183.6552     14637.65    3927.4066    131.68684   -97319.418    7529.8571   -89789.561    301.33735    425.72097    138043.78   -119115.74   -88932.488    66.263774 
   22000   -34.424673    3225.1343     14608.63    3856.0667    143.73237   -97353.073    7445.2525   -89907.821    297.95156    439.01169    137353.76   -119152.21   -89028.408    68.418832 
   23000   -75.005763    3179.4892    14649.154    3841.2044    134.86931   -97407.176    7500.5694   -89906.606    300.16529    8.1271092     137830.8   -119136.89    -89890.27    66.512248 
   24000   -34.864647    3266.8459    14684.753    3852.9926    143.28382   -97269.229    7512.1582    -89757.07    300.62906   -493.50827    138125.43   -119182.24   -90751.202    66.838052 
   25000   -26.875081    3209.5396    14549.707    3789.6157    122.47493   -97462.253    7631.1603   -89831.093     305.3914    198.28871     138082.8   -119106.72    -89431.78    68.988826 
   26000   -61.312967     3161.936    14594.112    3756.3051    124.31083   -97540.613     7542.153    -89998.46    301.82942   -150.17022    138351.99   -119115.96   -90301.461    69.071062 
   27000   -14.188347    3209.5345    14573.363    3737.5611    136.65924   -97435.542    7472.8994   -89962.642    299.05796    843.78472     137881.4   -119078.47    -88265.91    69.293385 
   28000   -54.369098    3381.0341    14570.274    3721.7523     150.0197   -97333.257    7596.0015   -89737.255    303.98438   -1026.4717    138332.53   -119101.97   -91808.098    67.101832 
   29000   -1.2194496    3254.7207     14586.03    3678.3953    149.91935   -97415.494    7568.0016   -89847.493    302.86386   -91.949963    137878.66   -119083.34   -90032.388    66.816697 
   30000   -20.296111    3195.3077    14576.862    3702.8013    134.18781   -97515.745    7495.5056   -90020.239    299.96264    -79.42602    138134.05   -119104.61   -90180.247    65.876916 
   31000    8.7044363    3220.2914    14589.381    3655.1088    138.53583   -97440.752    7572.5247   -89868.228    303.04487    12.559469    137914.53   -119052.77   -89842.966    65.539711 
   32000   -50.451892     3307.687    14645.461    3709.6826     133.5617   -97380.565    7387.5261   -89993.039    295.64141    553.72206    137734.23   -119126.51    -88880.77    65.499981 
   33000   -15.594448    3179.9649    14647.251    3715.3626    136.58604   -97459.859    7649.7806   -89810.078    306.13657    731.54248    137088.52   -119123.43   -88347.508    65.872179 
   34000   -29.779035    3167.3258    14612.426     3700.058    148.74477   -97505.142    7450.0961   -90055.046    298.14539    240.08867    138111.59   -119103.92   -89571.456    67.115828 
   35000   -38.693832    3245.5857    14699.596    3691.6253    144.41551   -97345.797    7508.1624   -89837.635    300.46915   -203.20634     137330.1   -119088.33    -90244.62    67.956462 
   36000   -35.352099    3297.7557    14656.112    3716.9539    144.72226   -97331.247    7461.4866   -89869.761    298.60123    14.443762    138006.18   -119111.44    -89840.69    67.731015 
   37000    -45.69309    3153.4605    14603.662    3768.4667    134.27616   -97509.917    7568.6704   -89941.247    302.89062    436.45837    138028.42   -119124.09   -89062.655    67.543174 
   38000   -40.738946    3128.6216    14504.773    3772.9923    131.39102   -97574.525    7480.1798   -90094.345    299.34932    720.76984    137797.39   -119071.56   -88645.862    67.781624 
   39000   -41.597206    3258.9154    14547.398    3704.1503    142.77199   -97471.984    7474.1282   -89997.856    299.10714    -251.1947    138318.96   -119083.62   -90504.576    65.941235 
   40000   -34.788533    3240.3298    14634.442    3731.3362    137.71743   -97385.512    7572.3726    -89813.14    303.03878   -348.61531    138005.73   -119094.55   -90514.788    65.538668 
   41000   -52.514664    3230.6979    14543.005    3701.9006    138.41768   -97512.632    7545.8534   -89966.779    301.97751   -288.70598    138115.16   -119074.14    -90548.31    68.146161 
   42000   -48.574875    3229.1325    14660.427    3702.9763    143.99102   -97409.915    7508.6996   -89901.215    300.49065    523.44239    137879.38   -119097.87   -88848.662    67.329933 
   43000   -107.95798    3290.1592    14705.707    3674.7123     149.1906   -97362.545    7430.3773   -89932.168    297.35627   -644.20679    138193.54   -119074.36   -91230.509     69.44075 
   44000   -87.172846    3200.2009    14585.272    3725.7115    141.43637    -97564.12    7602.8705   -89961.249    304.25927    392.25054     137144.3   -119129.57   -89176.705    67.070008 
   45000   -45.567937    3164.2132    14584.577    3743.7869    148.33912   -97506.425    7516.5702   -89989.855    300.80562    44.923133    137499.55   -119101.77   -89899.771     67.85637 
   46000   -43.350521    3214.3988    14681.396    3637.1327    135.27734   -97469.103    7572.9938   -89896.109    303.06364   -42.162193    138201.97   -119093.96   -89981.088    68.810172 
   47000   -66.576554    3179.8988    14656.653    3721.5914    131.98035   -97462.925    7597.2397   -89865.685    304.03393   -318.73116    137729.78   -119086.47   -90505.903    68.660376 
   48000    -85.33767    3254.8835    14540.919    3650.0229     145.3583   -97594.486    7520.1975   -90074.288    300.95078   -496.84412     138151.2   -119100.33   -91075.327    67.646655 
   49000   -65.319045    3226.1168    14677.415    3743.9348    139.20773   -97403.885    7447.0048   -89956.881    298.02169    112.48885    137672.99   -119125.24   -89731.023    68.056215 
   50000   -40.328254    3190.3818     14603.02    3670.1662    143.66526   -97533.185    7416.2236   -90116.962    296.78985   -539.51832    138090.07   -119100.09   -91203.499    68.317038 
   51000   -37.242321    3202.8975    14604.312    3668.6609    140.08826   -97494.616    7493.9899   -90000.626    299.90198    629.16332    138233.53   -119073.33   -88732.237    67.828796 
   52000   -3.4868773    3294.0532    14663.044    3648.8219    158.31277   -97341.554    7520.3219   -89821.232    300.95576   -42.390661    137794.67    -119102.3    -89906.42    69.410092 
   53000   -63.894527    3275.3599    14564.904     3688.903     154.6487   -97452.526    7363.0695   -90089.456    294.66268    347.57591    137660.82   -119072.45   -89391.649    69.770183 
   54000   -26.368254    3167.3404    14569.041    3699.0784     136.3291   -97550.763    7636.4455   -89914.318    305.60291    678.51044    137619.26   -119096.18   -88552.523    64.438831 
   55000   -39.714246    3209.5158     14612.66    3648.7276    136.62746   -97536.592    7462.3392   -90074.253    298.63535   -233.28211    138181.22   -119104.41   -90544.371    66.328815 
   56000   -50.782485    3177.8604    14580.784    3614.2566    138.13081   -97607.258    7497.0127   -90110.245    300.02295     299.5021    137823.81   -119067.51    -89508.24    68.368972 
   57000   -53.268537    3232.1361    14602.799    3616.2414    158.18721   -97533.178    7571.5148   -89961.663    303.00445   -619.77329    137685.24   -119089.27   -91206.166    67.626118 
   58000    -100.1501    3299.1628    14634.312    3666.1764    140.84002   -97425.092    7634.3132   -89790.778    305.51758    -182.7116     138251.2   -119065.43   -90159.171    68.297531 
   59000   -83.900069    3225.3402     14611.29    3667.6308    134.45846   -97529.664    7503.8469   -90025.818    300.29645   -478.46428    138443.94   -119084.48   -90991.867    65.707097 
   60000   -102.51411    3247.9303    14620.986    3678.2465    146.16897   -97496.553    7462.0363   -90034.517    298.62323    168.89838    138030.29   -119087.37    -89694.52    66.401838 
   61000   -53.098522    3170.8409    14640.309    3599.7869    154.28135   -97582.899    7523.3522   -90059.547    301.07703    355.34128    137900.36   -119095.02   -89344.907     67.22098 
   62000   -7.2975852     3282.361    14533.078    3654.0741    144.67163   -97502.548    7501.8522   -90000.696    300.21662    62.352767    138077.29   -119109.44   -89875.136    67.958406 
   63000   -43.197208    3175.8976    14617.098    3555.1043    150.19448   -97619.304    7428.4746    -90190.83    297.28012   -74.386521    138005.57    -119074.4   -90340.545    66.294437 
   64000    -51.07855    3174.2387    14587.979    3579.2364     151.6634   -97623.001    7536.5767   -90086.424    301.60626   -390.44462    137985.15   -119065.04   -90872.144    66.731552 
   65000   -44.872361    3202.5128    14648.702    3619.8905    143.41739   -97512.702    7532.6256   -89980.077    301.44814   -211.38224    137615.03   -119082.35   -90404.316    67.013003 
   66000    -28.51495    3192.1512    14657.287    3639.3193    153.30338   -97441.537     7653.793   -89787.744    306.29714   -153.29352    138358.67   -119055.08   -90097.063    66.887695 
   67000   -52.698027    3160.5769    14625.825    3613.4005    140.48033   -97545.735    7481.2862   -90064.449    299.39359    186.24891     137996.5   -119033.32   -89689.616    66.678971 
   68000   -111.95233    3202.0114    14663.361    3693.2725    140.60527   -97493.294     7621.713   -89871.581    305.01333    410.80907    137828.71   -119080.59   -89045.818    68.472379 
   69000    -2.182506    3199.7315    14609.028     3617.834    140.09701   -97517.534    7530.0465   -89987.487    301.34493     439.1521    137883.19   -119082.04   -89104.403    65.429148 
   70000   -13.184793    3209.7304    14511.609    3637.5954    158.78053   -97563.299    7477.8521   -90085.447    299.25616    545.15882    137782.63   -119067.83   -88989.994    68.328237 
   71000   -43.254629    3227.7096    14517.996    3625.9766    144.62254   -97541.941    7468.5574   -90073.383     298.8842   -129.68457    138174.35   -119014.99   -90334.715    67.213819 
   72000   -51.867057    3244.0848    14589.297    3704.5965    138.45037   -97497.708    7632.9749   -89864.733    305.46402    702.39182    138137.99   -119122.27   -88449.694     66.58349 
   73000   -34.096606    3209.2409    14556.005    3620.0197    131.15226    -97574.08    7470.9479   -90103.132    298.97986   -67.419443    138098.32    -119056.4   -90238.916    67.854532 
   74000   -33.041851     3213.938    14681.183     3604.649    149.58335   -97470.471    7537.6875   -89932.783    301.65072    346.94312    137833.44   -119086.78   -89235.372    68.901392 
   75000    10.595276    3273.9512    14633.955    3595.7436    138.84956    -97483.22     7665.278   -89817.942    306.75676    140.04155    137751.64   -119136.32   -89536.604    68.197659 
   76000   -11.295026     3272.992    14588.612    3632.3599    138.24805   -97481.647    7563.9012   -89917.746    302.69976      264.919    138114.73   -119102.56    -89384.13    67.197852 
   77000   -34.217389    3133.2694     14594.56    3586.2503    149.61668   -97609.703    7525.4733    -90084.23    301.16192   -402.09457    137904.72   -119039.18   -90892.922    65.198467 
   78000   -41.995043     3228.493     14647.41    3663.7247    140.28119   -97444.656    7544.9288   -89899.727     301.9405    300.63641    138146.11   -119082.57   -89294.029    65.285363 
   79000   -39.596585    3294.4688    14624.644    3608.9606    141.95474   -97441.197    7531.8749   -89909.322     301.4181   -417.58476    138322.03   -119071.63    -90751.71    67.003247 
   80000   -24.381924    3254.7532    14615.689    3633.5011    129.18347    -97466.81    7487.5343   -89979.276    299.64363    361.41486    137766.95   -119075.56   -89253.125    66.156187 
   81000   -62.486772    3270.8591    14661.015    3610.5046    133.82162   -97459.686    7436.8888   -90022.797    297.61685   -213.80943    137803.35    -119073.4   -90452.494    68.335716 
   82000    24.021642    3313.2669    14633.281    3615.0612    156.79402   -97378.412    7548.9424    -89829.47    302.10113    105.34948    137720.03   -119120.84   -89617.875    69.648486 
   83000    49.950606    3212.1291    14657.106    3596.3277    135.68351   -97456.945    7528.5483   -89928.396    301.28497    628.31181    137937.09   -119108.14    -88664.44    67.203235 
   84000   -23.772263    3136.9959    14622.722    3564.6664    127.30549   -97650.243    7501.0089   -90149.234    300.18287    215.65508    138614.77   -119078.16   -89713.275     64.17187 
   85000   -7.1651202    3320.6262    14585.969    3581.8232    140.30208   -97478.396    7596.6768   -89881.719    304.01141   -341.70347     137947.5   -119099.95   -90569.166     64.17308 
   86000   -9.9655407    3297.2979    14545.325    3637.9507    126.25595   -97526.103      7510.29   -90015.813     300.5543    746.20081    138002.27   -119122.97   -88513.993    67.241699 
   87000    19.603956    3299.2414    14662.792    3577.1651    129.68397   -97408.743    7582.4315   -89826.312    303.44133     -141.725    138242.49   -119097.23   -90112.047    68.089196 
   88000   -7.6165961    3235.8209    14552.455    3570.3586    131.80582    -97591.78    7545.5216   -90046.258    301.96423    912.91615    137889.75    -119074.6   -88210.402    67.552587 
   89000   -42.381567    3287.9136    14652.009    3631.3004    139.18057   -97390.049     7562.647   -89827.402    302.64957   -369.72365    138440.07   -119058.07   -90573.876    67.781859 
   90000   -33.641852    3268.1029    14615.737     3574.772    144.99057   -97572.985    7574.6215   -89998.364    303.12878    204.26718    138506.01   -119142.95   -89585.751    68.034436 
   91000   -51.853624    3180.2132    14558.915    3625.6344    132.31894   -97600.044     7447.969   -90152.074    298.06027   -74.142837    138497.59   -119045.27   -90301.832    68.336753 
   92000   -45.696404     3257.514    14616.993    3637.4413    127.93895   -97453.378    7429.1789   -90024.199    297.30831   -425.35265    137263.41   -119047.57   -90875.689    68.334306 
   93000   -26.789681    3285.7517    14540.648    3588.8915    139.67995   -97524.051    7482.4128   -90041.638    299.43868    -230.9065    138155.24   -119052.23   -90506.881    67.238756 
   94000   -70.255787    3274.3939    14650.109    3626.0752    139.88675    -97476.45    7459.4036   -90017.046    298.51787   -134.25038    138041.36   -119096.66   -90287.318    66.729825 
   95000   -73.504337    3191.6827    14495.399    3612.1139    138.15434   -97704.603    7419.3974   -90285.206    296.91686   -185.61013    138139.61   -119068.45   -90659.141    67.191034 
   96000   -27.016683    3194.6663     14641.79    3626.9641    137.53774   -97500.211      7604.15   -89896.061    304.31048    582.11923    138340.19   -119074.15   -88721.607    66.570229 
   97000   -45.659241    3190.3667    14593.018    3619.0147    127.68118   -97615.408    7466.1251   -90149.283    298.78686   -285.20931    138073.17   -119099.83   -90723.597    65.736379 
   98000    -83.20118    3226.9599    14658.328    3646.2126     148.6647    -97494.64    7526.7895    -89967.85    301.21459    251.53879    138327.39    -119091.6   -89460.405    64.327269 
   99000   -25.547061    3275.2812    14574.561    3571.4008    132.39399   -97497.544    7464.3149   -90033.229    298.71442   -379.85161    138080.81   -119025.63   -90798.161    67.664584 
  100000   -60.152208    3200.0912    14629.411    3597.2324    145.96179   -97563.998    7543.5203   -90020.477    301.88414   -827.15797       138510   -119076.54   -91691.358    65.495335 
  101000   -2.3838157    3195.4225    14703.099    3570.3817    147.85052   -97459.833    7632.4933    -89827.34    305.44475    -40.24226    138178.07    -119074.2   -89908.436    66.957212 
Loop time of 1488.06 on 56 procs for 100000 steps with 8384 atoms

Performance: 5.806 ns/day, 4.134 hours/ns, 67.201 timesteps/s
97.0% CPU use with 56 MPI tasks x no OpenMP threads

MPI task timing breakdown:
Section |  min time  |  avg time  |  max time  |%varavg| %total
---------------------------------------------------------------
Pair    | 769.54     | 927.7      | 1082.5     | 253.1 | 62.34
Bond    | 30.009     | 41.909     | 51.912     | 122.8 |  2.82
Kspace  | 215.57     | 380        | 550.33     | 433.5 | 25.54
Neigh   | 14.032     | 14.085     | 14.149     |   0.8 |  0.95
Comm    | 15.727     | 17.929     | 23.553     |  54.3 |  1.20
Output  | 0.0070481  | 0.0071499  | 0.0088947  |   0.3 |  0.00
Modify  | 87.085     | 102.01     | 106.54     |  55.1 |  6.86
Other   |            | 4.43       |            |       |  0.30

Nlocal:        149.714 ave         184 max         113 min
Histogram: 2 5 4 9 3 12 10 4 2 5
Nghost:        4840.50 ave        4952 max        4641 min
Histogram: 3 3 2 2 2 5 13 12 8 6
Neighs:        52004.6 ave       66008 max       39346 min
Histogram: 3 6 5 9 8 7 9 2 6 1

Total # of neighbors = 2912258
Ave neighs/atom = 347.35902
Ave special neighs/atom = 6.1984733
Neighbor list builds = 3563
Dangerous builds = 0
write_data      data_1_relax.*
System init for write_data ...
PPPM initialization ...
  using 12-bit tables for long-range coulomb (../kspace.cpp:340)
  G vector (1/distance) = 0.26903483
  grid = 48 48 48
  stencil order = 5
  estimated absolute RMS force accuracy = 0.0003148054
  estimated relative force accuracy = 9.4802713e-07
  using double precision FFTW3
  3d grid and FFT values/proc = 8246 2016
WARNING: Not all mixed pair coeffs generated from mixing. Use write_data with 'pair ij' option to store all pair coeffs. (../write_data.cpp:312)
unfix 1

fix             1 all npt temp  ${TEMP} ${TEMP} 100  tri  2000 2000 1000
fix             1 all npt temp  301 ${TEMP} 100  tri  2000 2000 1000
fix             1 all npt temp  301 301 100  tri  2000 2000 1000
run		500000
PPPM initialization ...
  using 12-bit tables for long-range coulomb (../kspace.cpp:340)
  G vector (1/distance) = 0.26903483
  grid = 48 48 48
  stencil order = 5
  estimated absolute RMS force accuracy = 0.0003148054
  estimated relative force accuracy = 9.4802713e-07
  using double precision FFTW3
  3d grid and FFT values/proc = 8246 2016
WARNING: Inconsistent image flags (../domain.cpp:814)
Per MPI rank memory allocation (min/avg/max) = 22.49 | 22.71 | 23.07 Mbytes
Step E_vdwl E_bond E_angle E_dihed E_impro PotEng KinEng TotEng Temp Press Volume v_coulomb Enthalpy S/CPU 
  101000   -2.3838157    3195.4225    14703.099    3570.3817    147.85052   -97459.837    7632.4933   -89827.344    305.44475   -40.236315    138178.07   -119074.21   -89908.428            0 
  102000   -27.989126     3133.802    14664.071    3781.2468    139.21225   -97351.162    7418.5604   -89932.602    296.88337    1847.7844    132920.11   -119041.51   -86350.665    63.851419 
  103000   -63.509553    3108.9743    14642.158    3843.3544    150.20541   -97371.655    7556.9499   -89814.705    302.42158     2138.869    131495.65   -119052.84   -85712.934    63.768958 
  104000   -103.83544    3124.2671    14714.699    3848.7215    136.93475    -97390.75    7508.5796   -89882.171    300.48585    1969.5687    129759.21   -119111.54   -86154.949    64.369056 
  105000    -199.8216    3097.5366    14703.011    4029.2715    145.30256     -97255.8    7708.5709   -89547.229     308.4893    1732.2805    127506.37    -119031.1   -86325.968    66.075813 
  106000   -292.64479    3203.4591    14722.362    4113.9467    139.19524    -97229.81    7529.9068   -89699.903    301.33934     1455.905    123048.69   -119116.13   -87087.225     63.02024 
  107000   -412.30192    3148.6151    14756.737     4202.558    156.68188   -97302.899    7664.2046   -89638.695    306.71381    949.30401    120644.15   -119155.19   -87968.422    59.223694 
  108000    -499.9817    3131.8717    14752.283    4342.3085    128.05737     -97319.3    7492.6246   -89826.675    299.84734    1862.1568    116808.77   -119173.84   -86654.424    58.364387 
  109000   -621.37239    3119.5911    14832.942    4490.8596    145.65285   -97130.019    7555.3312   -89574.688     302.3568    2061.7991    114103.64   -119097.69    -86143.68     57.53356 
  110000   -745.73768    3128.7157    14795.562    4537.1118    140.92995   -97313.334    7510.1181   -89803.216    300.54741    1549.1548    110719.99   -119169.92   -87301.738    57.076263 
  111000   -783.45132    3123.3548    14902.457    4609.0063    142.58758   -97189.474    7570.6875   -89618.787    302.97134    1649.6797    109069.91   -119183.43   -86994.686    57.995003 
  112000   -842.88346    3136.7484    14865.764    4615.5537    151.82733   -97308.702    7592.3868   -89716.315    303.83973    1937.4327    107768.33   -119235.71   -86671.271    57.131143 
  113000   -931.87811    3149.5833    14834.083     4709.265    143.79854     -97277.6    7658.7555   -89618.845    306.49574    1150.3564    106065.08   -119182.45   -87839.415    54.293595 
  114000   -836.71744     3156.398    14868.577    4614.9023    144.18272   -97292.728    7506.7936   -89785.935    300.41437    2214.7121    106235.73   -119240.07   -86354.595    55.932835 
  115000   -1002.0156    3058.0436    14842.368     4747.376    147.72516   -97457.236    7441.3891   -90015.847    297.79695    2991.6377    104505.19   -119250.73   -85456.289    55.440778 
  116000   -1003.2239    3131.6055    14897.955    4806.8072    162.16537   -97223.289    7512.2574   -89711.032    300.63303    1567.1799     104737.6    -119218.6   -87317.179    53.580294 
  117000   -1090.1378    3236.0698    14815.242    4798.3083    134.24601    -97343.72    7517.8865   -89825.833     300.8583    1259.4238     103656.8   -119237.45   -87921.927    56.747522 
  118000   -996.82997    3118.5096    14771.484     4760.905    150.26688   -97388.484    7594.1934   -89794.291    303.91202    1284.6027    103519.57   -119192.82   -87854.892     55.11606 
  119000   -1049.1753    3054.2213    14907.107    4802.2686    141.01392   -97400.901    7552.4797   -89848.421    302.24268    1717.6501    102722.84   -119256.34   -87275.197    55.846107 
  120000   -1005.2893    3193.1078    14957.979    4829.2755    142.31293   -97153.932    7610.6261   -89543.306    304.56965    2079.9925    102286.69   -119271.32   -86440.484    54.444848 
  121000   -1122.4145     3116.785     14908.14    4795.5652    146.19604   -97418.459     7530.854   -89887.605    301.37725    1670.6152    102832.73   -119262.73   -87382.166    55.870803 
  122000   -1177.7157      3133.43    14861.388    4861.2213    148.25959   -97445.438    7536.0196   -89909.419    301.58397    1427.0771    101443.18   -119272.02   -87798.137    54.449368 
  123000   -1139.6572    3109.7005    14859.194    4887.9243    145.60337   -97327.907    7590.3035   -89737.604    303.75635    1908.8531    102173.13   -119190.67    -86893.24    55.244709 
  124000   -1105.9435    3139.2524    14882.002    4702.0001    161.98231   -97415.815    7554.7134   -89861.102    302.33207    1642.6731    102041.46   -119195.11   -87416.525    54.225747 
  125000   -1093.0532    3128.1765    14988.572    4719.8854    127.64954   -97328.403    7412.2848   -89916.118    296.63222    2622.5258    101665.73   -119199.63   -86027.725     53.54416 
  126000   -1133.1118    3166.6254    14917.692    4763.3417    132.37528   -97380.877    7545.2155   -89835.661    301.95198    2009.8558    101592.47    -119227.8   -86857.815    55.269365 
  127000   -1183.2032    3195.1646     15029.62    4811.5977    160.05709   -97248.122    7527.3138   -89720.808    301.23557    1507.0773    101433.84   -119261.36   -87491.376    54.959453 
  128000   -1151.8834     3172.618    14880.077    4827.3182     144.0329   -97408.953    7501.5066   -89907.447    300.20279    2926.1827    101173.56   -119281.12   -85589.827    54.558538 
  129000   -1165.0375    3240.5578    14927.783    4747.2279    146.71482   -97363.729    7378.9082   -89984.821    295.29653    1520.3722    101310.53   -119260.98   -87738.456    53.997397 
  130000   -1267.5283     3154.777    15015.495    4852.4639      146.678   -97357.469    7442.1887    -89915.28    297.82895    2230.9802     99775.37   -119259.36   -86668.933     52.51001 
  131000   -1195.5437    3164.1745    14832.167     4881.595     135.9046   -97415.275    7505.7733   -89909.502    300.37354    1173.3272    100452.08   -119233.57   -88190.589     53.42581 
  132000   -1234.3478    3125.2978    14976.013    4803.4832    149.64456   -97440.597    7653.6531   -89786.944    306.29154    1804.8938    100157.21   -119260.69   -87150.553    52.794569 
  133000   -1232.6595    3130.8151    14919.388    4833.7116    132.37963   -97506.113     7548.922   -89957.191    302.10031    2423.6581    99861.003   -119289.75   -86427.447    53.458209 
  134000   -1140.9839    3135.9666    14937.964    4748.5227    142.48264   -97432.051    7563.3994   -89868.651    302.67968    2565.5861    100710.76      -119256   -86100.413    53.206888 
  135000   -1112.5314    3142.2614    14875.488    4792.2764    136.29225   -97464.208    7479.4311   -89984.776    299.31935    2755.8847    99711.288   -119297.99   -85977.205    53.712999 
  136000   -1134.7839    3254.2954    14945.413    4800.5908    152.76662   -97285.582    7493.0218    -89792.56    299.86324    1622.6642    100596.69   -119303.86   -87411.951    54.036038 
  137000   -1181.6039    3174.4593    14949.854    4828.4784    147.08565   -97374.597    7447.2302   -89927.367    298.03071    2086.6385     99877.15   -119292.87   -86887.957    53.926441 
  138000   -1131.4537    3202.4979    15011.653    4753.9561    140.00152   -97333.306    7453.2527   -89880.054    298.27172    2104.4584    99770.467   -119309.96   -86817.962    53.370596 
  139000   -1231.2914    3150.0976    14923.522    4755.2867    133.55445   -97544.538    7549.8614   -89994.677     302.1379    2181.9153    100279.23   -119275.71   -86803.692    53.267583 
  140000   -1236.8993    3229.8836     14928.55    4756.0334    156.16921   -97421.148    7481.9099   -89939.239    299.41855    2182.6126    99158.698   -119254.89   -86782.902    52.865461 
  141000   -1217.0676    3214.9754    14904.163    4740.1161    147.88239   -97455.158    7643.5786   -89811.579    305.88837    1018.1793    100001.75   -119245.23   -88326.643    52.864919 
  142000   -1261.3592    3201.8418     14881.46    4843.3891    141.41252   -97468.075    7618.3795   -89849.696    304.87993     1434.748    99103.376   -119274.82   -87776.024    54.254193 
  143000   -1169.5434    3163.5483    14862.088     4772.739    130.24642   -97540.989    7540.2764   -90000.712    301.75432    1444.8761    99443.754   -119300.07    -87905.23    53.507557 
  144000   -1251.2821    3173.4877    14887.235    4843.0404    149.49435     -97530.5    7577.8021   -89952.698    303.25606    2890.5145    98557.198   -119332.48   -85798.001    52.796858 
  145000   -1267.9573    3249.7819    15062.661    4761.2194    142.34011   -97390.176    7525.7943   -89864.381    301.17476    3104.0404    97997.582   -119338.22   -85428.105    53.777536 
  146000   -1295.5628    3118.5844    15040.989    4797.9501    154.50596   -97468.691    7558.2291   -89910.462    302.47277    1837.1392    98117.609   -119285.16   -87281.617     52.08304 
  147000   -1257.7444     3131.468    14942.142    4829.5705    162.03927   -97467.512    7478.5035   -89989.009    299.28223    3200.9516    97737.426   -119274.99   -85426.372    52.548072 
  148000   -1246.6729    3258.3038    14902.065    4812.2902    135.24176   -97443.429    7488.6558   -89954.773    299.68852    846.98642    98789.782   -119304.66   -88734.479    53.586154 
  149000   -1288.6894    3123.9227     14907.51    4783.7267    137.92423   -97649.385    7503.9935   -90145.391    300.30232    1707.2802    98350.539   -119313.78   -87696.568    53.399138 
  150000   -1285.0603    3205.9051    14916.555    4877.7531    151.25229   -97416.691    7393.8743   -90022.817    295.89546    1990.2287    98773.818    -119283.1   -87155.863    54.080838 
  151000   -1328.3782    3236.4088    14911.314    4872.4506    151.48701   -97483.003    7559.9516   -89923.051     302.5417    1085.2548    97979.779   -119326.29   -88372.293    54.258253 
  152000     -1317.45    3151.3366    14842.285    4801.8994    133.50986   -97690.173    7375.5592   -90314.613     295.1625    1330.9724    98460.191   -119301.75   -88403.416     53.37957 
  153000   -1269.9963     3160.616    14952.003    4880.6151    132.14728   -97468.351    7453.8303    -90014.52    298.29483    2452.8331    97520.474   -119323.74   -86526.013     53.74402 
  154000    -1258.306    3179.1253    14926.248    4815.3338    145.43711   -97509.517    7587.7766   -89921.741    303.65523    1842.5124    98638.277   -119317.36   -87271.216    52.902781 
  155000   -1267.6271    3135.8443    14897.306    4813.5727     152.6203   -97561.562    7524.6451   -90036.917    301.12877    1912.1566    98383.513   -119293.28   -87293.311    53.441053 
  156000   -1263.5746     3162.005    14943.839    4957.9612    137.63671   -97416.197    7525.4678   -89890.729    301.16169    1918.4508    98100.839   -119354.06   -87146.002     52.91481 
  157000   -1255.5388    3120.4109    14836.395    4860.8568    150.10308   -97592.237    7517.6183   -90074.618    300.84757    1908.3895    98379.865   -119304.46    -87336.52    52.782565 
  158000   -1302.8885    3186.6882    14885.966    4851.3943    156.13905   -97526.244    7588.9361   -89937.308    303.70163    2091.2637    97709.581   -119303.54    -86957.27    52.866817 
  159000   -1338.5613    3158.9475    14902.758    4849.4679    145.25908     -97630.2    7473.0645   -90157.136    299.06457    2637.8492    97878.086   -119348.07   -86391.734    53.354331 
  160000   -1304.3417    3152.1388    14921.876    4867.7758    138.55422   -97529.837    7486.2561    -90043.58    299.59248    2989.8175    97205.791   -119305.84   -85805.075    54.091445 
  161000   -1296.9375    3170.9624    14992.932    4803.2802    142.45092   -97436.363    7579.5483   -89856.815    303.32594    2449.7408     97271.75   -119249.05   -86381.591    53.773967 
  162000   -1308.5566    3161.3357     14951.99    4840.7003    148.75255   -97512.674    7517.5592   -89995.115     300.8452    2588.1845     97218.96    -119306.9   -86325.487    54.030421 
  163000    -1294.498    3164.8635    14885.511    4793.0202    126.89636   -97647.286    7492.6675   -90154.619    299.84906    3047.0665    97987.037   -119323.08   -85800.237    53.398442 
  164000   -1302.8767    3274.8372    14999.514    4795.0044    131.30609    -97404.82    7637.4244   -89767.395    305.64209    1654.1857    96960.907    -119302.6   -87428.252    53.508112 
  165000   -1289.5148    3186.9898    14915.455     4813.882    159.40923   -97514.357    7475.4805   -90038.877    299.16126     3126.013    97230.218   -119300.58   -85606.181    53.615747 
  166000   -1293.9871    3228.6598    14939.104    4870.4255    134.47618   -97424.813    7606.4413   -89818.372    304.40217    2432.4668    97356.876   -119303.49   -86364.633    53.984831 
  167000    -1326.298    3120.9944    14855.231    4857.7045    132.65448   -97623.058    7627.5527   -89995.505    305.24703    2108.6065     97911.14   -119263.34   -86984.555      54.1538 
  168000   -1354.8163    3116.9481    14901.272    4878.9225    135.58339   -97659.169    7510.1013   -90149.068    300.54674    2398.9132    96750.154   -119337.08   -86764.197    54.447696 
  169000   -1336.8033     3146.989    14935.115    4803.9981    142.13313   -97612.006    7569.7867    -90042.22    302.93529    3130.2417    96728.566   -119303.44   -85626.429     52.67881 
  170000   -1328.3763    3104.2551    14918.406    4845.4007     138.5686   -97609.743    7614.8326    -89994.91    304.73798    2869.3247    96387.722      -119288   -85961.454    53.672066 
  171000   -1357.9314    3157.5595     14983.51    4815.3918    152.69828   -97588.417    7552.6474    -90035.77     302.2494    1746.8829    96950.388   -119339.65   -87565.814    52.325757 
  172000   -1317.4764    3192.9802    14920.273     4845.823    134.10896   -97512.349    7435.6346   -90076.714    297.56666    3145.9496    96474.929   -119288.06   -85650.401    52.996616 
  173000   -1359.2092    3141.1989    14891.243    4815.5482    152.26646   -97639.441    7552.1963   -90087.244    302.23134    1343.3334     96668.79   -119280.49   -88193.392    53.303319 
  174000   -1368.6354    3166.0736    14925.429    4842.9705    146.19507   -97643.207    7465.7407   -90177.467    298.77148    1442.3594    96527.519   -119355.24   -88146.978     54.03657 
  175000   -1374.2993    3229.1572    14948.037    4845.0843    152.37331   -97551.937    7481.9912   -90069.945     299.4218    2069.6893    97076.947   -119352.29   -87139.746    53.879505 
  176000   -1331.0331    3105.0571    15019.893    4763.1768     136.5402   -97607.197    7412.1977       -90195    296.62874    2058.8834     96926.78   -119300.83   -87284.608    51.926256 
  177000   -1289.9306    3183.7579    15001.872    4738.9061    150.22989    -97521.24    7512.8421   -90008.398    300.65643    2503.4286    96669.486   -119306.08   -86479.001    53.335506 
  178000   -1337.1127    3167.3578    15004.426    4835.7402    149.64412   -97488.009    7387.4414   -90100.568    295.63802    1849.4059    96997.356   -119308.06   -87484.385     53.51388 
  179000   -1337.1899    3130.9219    14994.691    4800.2405    143.82239   -97586.012    7517.9783   -90068.033    300.86197    2314.9556    96608.413    -119318.5   -86806.412    54.109989 
  180000   -1340.1993    3132.6174    14872.071    4799.0798    153.24472   -97695.524    7537.6196   -90157.905      301.648    2229.2472    96292.167   -119312.34   -87027.323     52.88367 
  181000   -1313.4583    3191.4915    14962.435    4743.6192    150.30014    -97588.82    7547.3923   -90041.427    302.03909    1908.9775    96671.641   -119323.21   -87350.043    53.832338 
[...]
 1007000   -1385.9359    3181.3348    14917.596    4667.7555    141.36402   -97731.285     7584.968   -90146.317    303.54283    230.03256    98319.818    -119253.4   -89816.475    49.158769 
 1008000    -1348.664    3115.4841    14886.019    4692.7914    148.70466    -97758.75     7494.369   -90264.381    299.91715    1349.6004    98259.119   -119253.09   -88330.393    48.862727 
 1009000   -1364.4425    3103.4682    14883.524    4666.2636    153.01377   -97782.513     7459.397   -90323.116    298.51761    414.62507      99064.9   -119224.34   -89724.082    49.350722 
 1010000   -1360.6398    3145.2269     14880.02    4642.1287    149.25105   -97825.947     7572.088   -90253.859    303.02739    1033.7675    98549.931   -119281.93   -88768.077    49.199817 
 1011000   -1337.6096    3229.6509    14965.814    4648.1016    135.44499   -97606.882    7400.5551   -90206.327    296.16282    1615.1798    97907.432   -119248.28   -87900.045    49.159754 
 1012000   -1345.3097     3248.176    14830.692    4671.8649    145.66191   -97686.167    7456.0674     -90230.1    298.38436    1305.4019    98614.856   -119237.25   -88352.675    49.766038 
 1013000   -1270.1993    3229.6586    14922.677    4562.8426    129.42783   -97659.376    7582.9675   -90076.408    303.46278    1069.5717    98872.351   -119233.78   -88534.138    49.715659 
 1014000   -1324.1575    3185.9506    14901.639     4629.432    134.20006   -97734.587      7512.36   -90222.227    300.63713    1917.9537    98165.477   -119261.65   -87476.403     49.30102 
 1015000   -1297.8109    3196.7015    14932.786    4661.8684    144.98288   -97646.324    7511.4589   -90134.865    300.60107     878.4102    98708.578   -119284.85   -88870.338    49.881367 
 1016000   -1395.8017    3333.1405    14930.609    4727.7527    145.17594   -97537.465    7459.1081   -90078.357    298.50605   -115.78231    98657.518   -119278.34   -90244.947    49.645876 
 1017000   -1304.2883    3246.6596    14810.394    4678.1282    145.16564    -97713.84    7380.8424   -90332.998    295.37393    672.80741    98443.379    -119289.9   -89367.051    48.375229 
 1018000   -1406.2123    3185.4493    14924.263    4684.1699    148.03346   -97698.549    7603.5209   -90095.028     304.2853    845.02374    98063.938   -119234.25   -88886.507    48.500185 
 1019000   -1331.3833    3203.2368    14898.569    4596.2448    150.49702   -97741.151    7534.7469   -90206.404    301.53303    1794.7963    98693.418   -119258.32   -87623.078    49.093248 
 1020000   -1352.0701    3278.7485    14889.977    4604.4705    159.70886   -97623.399    7710.3497    -89913.05    308.56049    197.49023    99246.507   -119204.23   -89627.201    48.966573 
 1021000   -1311.4915     3182.486    14986.165    4635.0894    137.92178   -97665.078    7522.6065   -90142.471    301.04719    1040.7144    98486.127   -119295.25   -88647.673    48.316109 
 1022000   -1330.1094    3238.9817    14962.701    4638.0119    155.75161   -97616.805    7411.5703   -90205.235    296.60363     1721.658    98400.387   -119282.14   -87734.537    49.240422 
 1023000   -1314.0152    3217.7884    14856.573    4608.3145     138.6768   -97747.897    7440.0112   -90307.886    297.74181    1253.9604    99108.433   -119255.23   -88495.418    47.945389 
 1024000   -1347.1749    3241.4457    14906.361    4698.7822    135.61692   -97648.111    7558.4225   -90089.689    302.48051    75.816775    99236.348   -119283.14   -89979.962    49.018743 
 1025000   -1338.9963    3239.8554    14840.376    4627.8725    139.82162   -97733.606    7427.1343   -90306.472    297.22649   -292.93196     99025.39   -119242.53   -90729.519    49.272754 
 1026000   -1380.9331     3204.062    14924.244    4673.9022    138.75378   -97701.536    7452.2495   -90249.286    298.23157    138.85738    98806.522   -119261.56   -90049.194     48.98034 
 1027000   -1327.8228    3296.8944    14831.512     4649.309     141.1633   -97668.823    7503.0662   -90165.756    300.26521    1536.4957    98918.688   -119259.88   -87949.165    48.521372 
 1028000   -1338.8491    3226.8332    14888.069    4585.8319    150.00883   -97774.973    7546.0412   -90228.931    301.98502    864.69201    99118.191   -119286.87   -88978.987    47.900846 
 1029000    -1361.621      3297.58    14875.644    4754.1535     157.2087   -97517.935    7548.3898   -89969.545    302.07901    1001.0927    98417.053    -119240.9   -88532.665    48.785685 
 1030000   -1329.3757    3271.5104    14902.823    4588.8851    139.46339   -97700.369    7476.3534   -90224.016    299.19619    124.97409    99819.517   -119273.68   -90042.083     47.70816 
 1031000   -1269.8812    3287.1101    14953.753    4609.3949    144.47751   -97570.794    7532.6101   -90038.183    301.44753    961.23135    99391.918   -119295.65    -88644.85    49.204443 
 1032000   -1350.4615    3224.8121     14852.18     4634.457    154.24747    -97733.79    7481.2232   -90252.566    299.39107    755.86323    99457.033   -119249.02   -89156.203    50.232151 
 1033000   -1269.2708    3192.4951    14939.697    4578.6784     153.3476   -97610.819    7549.5266   -90061.292    302.12451    1335.2274     99106.85   -119205.77   -88131.392    49.365417 
 1034000   -1262.0142    3220.1084    14817.709    4599.6975    140.63873   -97740.482    7478.6496   -90261.832    299.28808    1568.0646    99863.296   -119256.62   -87978.097    49.523811 
 1035000   -1351.1501    3301.5592    14942.095    4661.8596    147.52313   -97582.564    7497.7374   -90084.826    300.05195    529.70641     98924.66   -119284.45   -89320.611    48.482458 
 1036000    -1335.388    3229.5506    14853.687     4606.257    134.87791   -97739.472    7525.4918    -90213.98    301.16266    713.33058    99557.019   -119228.46   -89178.269    48.449408 
 1037000   -1329.1482    3213.3201    14869.845    4655.4637     138.5507   -97718.336      7491.99   -90226.346    299.82195    1341.2994    99261.749   -119266.37    -88284.64    50.133709 
 1038000   -1276.6947    3290.3426    14948.884    4592.0362     127.8683   -97564.597    7499.6863   -90064.911    300.12995    822.72493    99862.599   -119247.03     -88866.7    49.008487 
 1039000   -1319.9172    3211.9938    14838.069    4681.7421    145.24531    -97713.36    7408.7751   -90304.585    296.49177     525.4522    98557.606   -119270.49    -89549.32    49.732281 
 1040000   -1304.5085    3168.6359    14893.117    4580.6694    136.56919    -97771.01     7569.405   -90201.605    302.92002    1371.9491    99081.871   -119245.49   -88219.129    50.183249 
 1041000   -1346.9796    3241.9161    14939.301     4666.991    165.84644   -97620.298    7659.1583   -89961.139    306.51185     548.3783    98484.313   -119287.37   -89173.508    49.365869 
 1042000   -1363.0739    3207.2422    14909.464    4649.6704     153.3377   -97716.651     7433.406   -90283.245    297.47747    1116.7348    98950.598   -119273.29   -88671.693    49.179209 
 1043000   -1367.8919    3179.8435    15010.769    4621.2454    138.84003   -97722.934    7548.5577   -90174.377    302.08573   -127.04008    99059.472   -119305.74   -90357.909    49.472272 
 1044000   -1261.1454    3196.0635    14891.907    4611.0542     144.5217   -97691.608    7468.1607   -90223.448    298.86832    1536.8094    99756.311   -119274.01   -87987.631    49.681028 
 1045000   -1341.9291    3212.7122    14892.196    4669.9689     147.9672   -97644.579     7651.859    -89992.72    306.21974    942.45128    99027.684   -119225.49   -88631.616    49.372771 
 1046000   -1263.8598    3171.0803    14925.861    4639.4028    137.82181   -97684.118    7498.6582    -90185.46     300.0888    768.23107    98461.759   -119294.42   -89082.308    49.802575 
 1047000   -1307.7758    3106.9919    14884.153    4643.2846    146.69383   -97753.556    7593.7842   -90159.771    303.89565    773.51016    98791.061    -119226.9   -89045.324    49.687883 
 1048000   -1315.8433    3250.9368    14939.622    4693.2907    154.01425   -97578.729    7556.0178   -90022.712    302.38428    904.37928    98915.936   -119300.75   -88718.065    49.914967 
 1049000    -1286.944    3206.1711    14905.699    4669.6672    153.43583   -97628.588    7505.4328   -90123.155    300.35992    1353.1083    99526.601   -119276.62   -88159.127    50.379349 
 1050000    -1371.785    3238.2208    14886.629    4631.3898     127.7717   -97815.031    7515.9676   -90299.064    300.78151    895.63027     99307.95   -119327.26   -89001.918    50.196646 
 1051000   -1303.5072    3152.1821    14976.403    4625.4912    143.28895   -97687.185    7521.9599   -90165.226    301.02131    788.47903    99330.013   -119281.04   -89023.014    50.062939 
 1052000   -1294.1441    3216.2092    14877.637    4678.5754    135.87035   -97674.978    7471.3255   -90203.653    298.99497    681.65107    98840.514   -119289.13   -89221.061    49.611854 
 1053000   -1246.4833    3174.8088     14951.49    4580.5928    145.80768    -97666.46    7602.9816   -90063.478    304.26372       1286.1    99144.973   -119272.68    -88203.87    50.012246 
 1054000   -1247.1486    3207.8065    14914.435    4613.8596    135.98581   -97657.263    7582.2823   -90074.981    303.43535    984.21562    99917.881    -119282.2   -88640.782    49.874658 
 1055000   -1328.3217    3214.7247    14883.002    4661.6124    139.68378   -97740.632    7561.2783   -90179.354     302.5948    1430.1384     99065.75   -119311.33    -88113.13    49.524613 
 1056000   -1343.5431     3175.535    14889.272    4650.4563    145.77046   -97709.264    7608.0101   -90101.254    304.46495    190.13892    98913.788   -119226.76   -89826.968    50.100753 
 1057000   -1290.4578    3202.8441      14807.5    4655.3504     148.3536   -97764.153    7456.7092   -90307.444    298.41004    1970.8778    99071.196   -119287.74   -87459.817    50.638809 
 1058000   -1304.6233    3177.2984     14922.23    4744.1098    147.44476   -97581.151    7510.1034   -90071.048    300.54683    2500.6555    98156.454   -119267.61   -86491.331     50.52137 
 1059000   -1305.9015    3240.5643    14925.989    4580.6273    130.58091   -97664.528    7500.4085   -90164.119    300.15885    1029.3849    99404.028   -119236.39   -88671.814    50.425035 
 1060000   -1355.8866    3191.9889     14925.01     4685.763    155.81345   -97712.748     7476.057   -90236.691    299.18432   -60.328805    98393.979   -119315.44   -90323.261    48.742124 
 1061000   -1377.3161    3130.3225    14916.232    4708.6542    145.43537   -97734.433    7615.6718   -90118.762    304.77157    660.28458    98712.253   -119257.76   -89168.205    50.421926 
 1062000    -1325.514    3123.7947     14886.37    4644.8446    139.50959   -97803.787    7478.0624   -90325.725    299.26458    2737.9677    98556.105   -119272.79   -86390.335    50.644845 
 1063000   -1269.7508    3209.4842    14927.343    4636.0662    139.46621   -97637.439    7538.7596   -90098.679    301.69362    960.55607    99602.498   -119280.05   -88703.375    50.140793 
 1064000   -1314.4303    3192.6868    14885.209    4611.7366    147.10307   -97751.095    7520.8138   -90230.281    300.97545    849.24078    98469.293    -119273.4   -89010.709    49.629944 
 1065000   -1313.2517    3152.7679    14935.303    4704.6455    144.38155   -97588.342    7570.1323    -90018.21    302.94913    1262.7204    98640.701   -119212.19   -88201.694    49.538922 
 1066000   -1301.5959    3279.8921    14874.742    4644.6253    137.41903   -97660.059    7541.0224   -90119.037    301.78418     1063.841    98829.725   -119295.14   -88585.691    49.822406 
 1067000   -1341.2671    3130.3124    14830.994    4737.6831     136.8667    -97759.36    7437.4412   -90321.919    297.63896    166.13813    99129.955   -119253.95   -90081.731    50.334685 
 1068000   -1374.0767    3185.6027    14911.425    4634.1763    143.90146   -97756.922    7533.1697   -90223.752    301.46992    569.42782    98404.745   -119257.95   -89406.548    50.007244 
 1069000   -1397.6122    3247.7692    14857.347    4703.8377    146.03484     -97731.2    7533.7142   -90197.486    301.49171    981.89816    98226.672   -119288.58   -88790.882    49.504907 
 1070000   -1347.8667    3171.8575    14888.235    4606.2399    138.31177   -97778.015    7647.8671   -90130.148    306.05999    1252.7261    98340.702   -119234.79   -88333.491     48.98003 
 1071000   -1397.1574    3198.6177    14867.484    4694.3619    148.64185   -97742.309    7427.8486   -90314.461    297.25507    512.50787    98455.943   -119254.26   -89578.561    50.364658 
 1072000   -1354.1094    3187.8624    14941.775    4626.6499    147.03692    -97714.96     7487.984   -90226.976    299.66163    975.58359    98060.058   -119264.17   -88831.788    50.232231 
 1073000   -1358.6149    3243.2681    14943.523    4672.3579    138.12737    -97644.44    7510.3749   -90134.065    300.55769    595.22866    99176.088    -119283.1   -89273.137     50.18024 
 1074000   -1311.4128    3164.0478    14929.147    4661.7511    150.63983    -97737.55    7466.6349   -90270.915    298.80726    2183.9423    98404.035   -119331.72   -87136.692    49.908323 
 1075000   -1271.3825    3236.9512    14899.814    4651.2145    144.92093   -97606.093    7502.9382   -90103.154    300.26008    1330.0675    99535.263   -119267.61   -88172.402    49.906373 
 1076000   -1363.2717    3104.6373    14882.654    4738.1089    154.18388   -97709.717     7500.666   -90209.051    300.16915    1098.1757    97950.053   -119226.03   -88640.306    50.004498 
 1077000   -1303.5656      3273.93    14922.338    4636.6352    142.38828   -97641.053     7544.409   -90096.645     301.9197    435.68167    98642.193   -119312.78   -89469.875    49.733916 
 1078000   -1322.2685    3207.6911    14909.078    4726.5817    148.50879   -97618.346    7496.8501   -90121.496    300.01644    649.63872    99023.883   -119287.94   -89183.312    48.891483 
 1079000   -1338.2629    3190.2658    14897.905    4726.5632    151.52976   -97666.018    7522.4075    -90143.61    301.03923    1747.0266    98476.236   -119294.02   -87634.574    50.491864 
 1080000   -1267.8219    3182.4125    14887.083    4687.4853    139.22482   -97682.536    7500.2376   -90182.298    300.15201    1958.2574    98904.611   -119310.92   -87357.664    48.880471 
 1081000   -1366.9259    3294.9233     14826.97     4680.694    141.99868   -97684.781    7548.1713    -90136.61    302.07027    894.29708    97725.869   -119262.44   -88862.029     49.13065 
 1082000   -1384.6507    3227.6023     14903.46    4676.0778    140.07402   -97674.462    7516.4673   -90157.994     300.8015    912.60561      97991.3   -119237.03   -88853.787     48.44325 
 1083000   -1375.5813    3193.8922     14849.24    4597.6609    133.98339    -97837.93    7546.0404    -90291.89    301.98499    469.12925    98772.377   -119237.13   -89616.112    48.145018 
 1084000    -1295.017    3198.8626    14914.223    4613.0168    161.17439   -97666.005    7598.0503   -90067.954    304.06637    2004.3247    98678.483   -119258.26   -87183.482    49.373997 
 1085000    -1313.531    3231.0091    14927.982    4685.0892    151.91405   -97615.437    7394.0248   -90221.412    295.90148    957.33486    99266.041    -119297.9   -88835.484    48.912169 
 1086000   -1304.0457    3213.3581    14945.104    4659.9128    137.97573   -97623.955    7517.3614   -90106.593    300.83729    611.19874    98799.258   -119276.26   -89225.926    48.554097 
 1087000   -1326.2362    3258.9227    14826.535    4644.0149    152.54121   -97734.243    7584.8005   -90149.442    303.53613    476.79783    98584.823   -119290.02   -89463.922    48.236963 
 1088000   -1352.9065    3113.0044    14838.409    4665.3968    159.58485   -97804.061    7409.0088   -90395.053    296.50112    948.35176    98605.168   -119227.55    -89031.27    49.506255 
 1089000   -1336.1192    3235.6233    14891.462    4652.4347    146.47061   -97661.485    7574.2193   -90087.266    303.11268    1658.0932    98721.139   -119251.36   -87700.032    49.663756 
 1090000   -1399.2809    3307.5201    14967.496    4648.9727    148.91203   -97616.549    7462.5052   -90154.043      298.642   -1177.6076    98727.813   -119290.17   -91849.614    48.670966 
 1091000   -1303.6307    3186.1585     14935.68    4577.7329    157.58178   -97704.606     7470.603   -90234.003    298.96606   -240.59884    99294.392   -119258.13   -90582.416    49.712192 
 1092000   -1329.8334    3197.2188    14826.215    4621.5925    149.82349   -97743.175    7380.1781   -90362.997    295.34735    967.52777    99101.917   -119208.19   -88964.629    49.674749 
 1093000   -1301.3335    3239.0808     14890.47    4583.9509    146.74524   -97706.077    7498.1561   -90207.921    300.06871    977.99614    98999.046   -119264.99   -88795.891    49.423355 
 1094000   -1286.9542    3246.8952    14905.343    4562.5509    142.33743    -97713.52    7555.1963   -90158.324     302.3514    214.38117    98601.519   -119283.69   -89850.043    49.911081 
 1095000   -1278.9602    3216.7606     14848.58    4626.2911    144.21234   -97756.929    7447.5341   -90309.394    298.04287    1284.2668    99455.919   -119313.81   -88446.614    50.240257 
 1096000   -1258.3745     3174.108    14965.318    4643.5544    149.51696   -97614.865    7530.4495   -90084.416    301.36106    2352.9619    99009.114   -119288.99   -86686.865    49.530498 
 1097000   -1306.3117    3185.6114    14861.668    4640.1903     141.3586   -97739.175    7499.9625   -90239.213      300.141    1090.9855    98968.145   -119261.69    -88664.54    49.719737 
 1098000   -1264.3841    3206.1216    14835.713    4614.0229    151.49925   -97682.097    7533.2775   -90148.819    301.47423    1046.5254    99049.081   -119225.07   -88637.083    50.079063 
 1099000   -1346.5463    3273.3015    14950.682    4614.0704    149.23281     -97633.6    7423.6982   -90209.901    297.08898    528.56589    98566.432   -119274.34   -89450.093    49.470071 
 1100000   -1316.9772    3202.1136    14950.768    4624.3866    158.96106   -97636.239     7625.241   -90010.998    305.15452    835.06613    98663.135   -119255.49   -88809.421    48.911215 
 1101000   -1313.2243    3198.5522    14799.946    4667.6974    150.68129   -97766.382    7621.3764   -90145.005    304.99986    915.62625    99087.208   -119270.03   -88821.847    49.857194 
Loop time of 10039 on 56 procs for 500000 steps with 8384 atoms

Performance: 4.303 ns/day, 5.577 hours/ns, 49.806 timesteps/s
97.3% CPU use with 56 MPI tasks x no OpenMP threads

MPI task timing breakdown:
Section |  min time  |  avg time  |  max time  |%varavg| %total
---------------------------------------------------------------
Pair    | 5405.6     | 6535.6     | 7376.8     | 470.9 | 65.10
Bond    | 163.27     | 210.32     | 259.38     | 133.5 |  2.10
Kspace  | 1094       | 1984.1     | 3127.1     | 877.0 | 19.76
Neigh   | 75.899     | 76.21      | 76.462     |   2.5 |  0.76
Comm    | 115.43     | 277.43     | 310.68     | 260.8 |  2.76
Output  | 0.035761   | 0.036168   | 0.045713   |   0.7 |  0.00
Modify  | 500.4      | 596.19     | 1115.6     | 563.1 |  5.94
Other   |            | 359.1      |            |       |  3.58

Nlocal:        149.714 ave         171 max         128 min
Histogram: 1 2 8 10 5 12 9 4 2 3
Nghost:        5926.79 ave        6056 max        5852 min
Histogram: 7 9 12 2 11 6 3 3 1 2
Neighs:        72823.9 ave       85909 max       61369 min
Histogram: 1 5 7 8 12 10 7 2 3 1

Total # of neighbors = 4078140
Ave neighs/atom = 486.41937
Ave special neighs/atom = 6.1984733
Neighbor list builds = 17626
Dangerous builds = 0
write_data      data_3_100MPa.*
System init for write_data ...
PPPM initialization ...
  using 12-bit tables for long-range coulomb (../kspace.cpp:340)
  G vector (1/distance) = 0.27637013
  grid = 45 48 60
  stencil order = 5
  estimated absolute RMS force accuracy = 0.00020692387
  estimated relative force accuracy = 6.2314507e-07
  using double precision FFTW3
  3d grid and FFT values/proc = 9690 4320
unfix 1






