LAMMPS data file via write_data, version 29 Sep 2021, timestep = 300513

3392 atoms
7 atom types
4096 bonds
6 bond types
7296 angles
9 angle types
12288 dihedrals
11 dihedral types
1536 impropers
3 improper types

0.3028758506983422 51.755850149304244 xlo xhi
0.31211409137196355 51.75105390862599 ylo yhi
0.3050795305601035 51.751612469438705 zlo zhi
0.4129718540505327 0.14545217677254713 0.17111654105865298 xy xz yz

Masses

1 15.9994
2 65.38
3 15.9994
4 12.0107
5 12.0107
6 12.0107
7 1.0079

Pair Coeffs # buck6d/coul/gauss/long

1 10856 3.2967 308.776 1.60225 0.632701
2 50784 2.62009 5731.71 39.9418 0.341054
3 10856 3.2967 308.776 1.60225 0.632701
4 10304 3.09278 429.894 3.91702 0.608002
5 10304 3.06122 457.18 4.52185 0.60801
6 10304 3.06122 457.18 4.52185 0.608002
7 3680 4 32.805 0.106908 0.977155

Dihedral Coeffs # opls

1 0 0 0 0
2 0 0 0 0
3 0 0 0 0
4 0 0.076 0 0
5 0 3.012 0 0
6 0 1.902 0 0
7 0 4.379 0 0
8 0 6.316 0 0
9 0 5.972 0 0
10 0 0 0 0
11 0 0 0 0

Improper Coeffs # inversion/harmonic

1 13.5247 0
2 1.36686 0
3 63.3072 0

Atoms # full

489 2 3 -0.72 12.083503559269632 3.4094846029158616 0.39394829355935423 0 0 1
490 2 4 0.61 13.155433133522953 3.901016215097872 0.8820449296685416 0 0 1
4 1 2 1.42 1.5002570074164896 1.7442458472820217 25.020584249301326 0 0 0
300 1 5 -0.12 12.26904894113114 0.7447944821872434 20.594700466579067 0 0 0
292 1 5 -0.12 12.340106326356437 6.967849253187073 14.195415540647492 0 0 0
12 1 3 -0.72 0.9412430398050331 3.6914153927340503 25.09773635975906 0 0 0
226 1 3 -0.72 1.1067358142717665 3.1786971934870447 13.957240775592513 0 0 0
247 1 5 -0.12 0.8362835892287841 1.5449613130106674 20.362891699590335 0 0 0
255 1 7 0.12 1.4433769881762646 2.3400514534099304 18.446451810156823 0 0 0
244 1 7 0.12 1.1809720644961619 5.506798844979819 15.015939695970735 0 0 0
11 1 3 -0.72 0.9549367902999096 1.4134859567168825 23.146475843947837 0 0 0
57 1 2 1.42 12.126637026577898 1.5373238606734325 25.159942591112213 0 0 0
315 1 7 0.12 5.8504064725725575 1.6942126443633523 14.612183516412138 0 0 0
293 1 5 -0.12 12.394443942883782 5.62071099460842 14.323372795893832 0 0 0
106 1 7 0.12 8.034472220927075 2.457108133500383 25.117839549266815 0 0 0
283 1 3 -0.72 10.468445031410205 0.8187541453599357 14.056999356284004 0 0 0
246 1 5 -0.12 0.9975971552650165 1.5053767723309426 18.964989692302996 0 0 0
299 1 5 -0.12 12.298355674846684 0.660693553041525 19.187292405075834 0 0 0
65 1 3 -0.72 12.50336941209094 3.480947619916109 25.098811658662058 0 0 0
279 1 3 -0.72 12.725397505581464 2.9017698093538686 14.49669222128754 0 0 0
252 1 7 0.12 1.0594978706944516 2.485683604721292 20.93550534482591 0 0 0
297 1 7 0.12 11.529818049752791 5.045863759023053 14.837078542621667 0 0 0
214 1 2 1.42 1.599371017292498 1.2350085572697314 14.2369117314098 0 0 0
233 1 3 -0.72 3.5857870209275724 1.0608656327434112 13.940218300541137 0 0 0
86 1 7 0.12 12.543076398495364 5.798573322396078 23.61389816881367 0 0 0
310 1 5 -0.12 6.285971642919205 0.9557691945091707 13.943227691359212 0 0 0
309 1 5 -0.12 7.667625852775936 1.021578366805001 13.909842682000637 0 0 0
64 1 3 -0.72 10.236518642554753 1.4266262910253489 25.652613952200323 0 0 0
33 1 7 0.12 1.697153312334612 5.694436674525049 24.561018766879783 0 0 0
77 1 5 -0.12 13.090796729802198 6.193392899237061 24.4400673782611 0 0 0
25 1 5 -0.12 1.0108565616721235 7.645177621946426 24.949050138175448 0 0 0
24 1 5 -0.12 0.9343220617502912 6.3107802100413375 25.009420941181723 0 0 0
305 1 7 0.12 11.454656458648328 1.2776309531895689 21.08041904239607 0 0 0
267 1 2 1.42 12.280693407870778 0.9938257395254998 14.665054750756736 0 0 0
17 1 3 -0.72 3.342601366561914 1.9283959409955354 25.526456836412837 0 0 0
98 1 5 -0.12 6.112616743948992 1.8374105547212565 25.638263390064534 0 0 0
97 1 5 -0.12 7.4504227549595585 1.7955124847765478 25.765440530277125 0 0 0
230 1 3 -0.72 1.298815030609359 1.1747237780392763 16.153697867828193 0 0 0
240 1 5 -0.12 0.765040533297314 5.991236838526262 14.15435479279699 0 0 0
318 1 7 0.12 8.171878564600469 1.6784642695124794 14.639681972039318 0 0 0
70 1 3 -0.72 12.216959865557603 0.6451166674781202 23.32898908436502 0 0 0
103 1 7 0.12 5.525291131262292 2.5190517312299607 24.940620378684986 0 0 0
239 1 5 -0.12 0.6163368701342746 7.387803476985724 14.13545076789767 0 0 0
78 1 5 -0.12 13.17669718282963 7.593721873486514 24.478621418487016 0 0 0
1099 3 6 0.18 0.5382891244849666 0.422612163871102 18.253399718609394 0 1 0
296 1 7 0.12 11.700759081773024 7.637994040301263 14.846470353189089 0 0 0
308 1 7 0.12 11.610090842607072 1.2777438542536652 18.602599001116783 0 0 0
864 3 4 0.61 3.85412365418607 1.0500992834163858 26.297329503871875 0 1 0
950 3 6 0.18 8.128887157337347 0.8669634391287564 26.619886892915904 0 1 0
947 3 6 0.18 5.331439025262961 1.0328450755328595 26.447524056661685 0 1 0
911 3 4 0.61 9.614979085256458 0.7652841061378437 26.536732089503243 0 1 0
1311 4 6 0.18 0.7973306283801681 0.797726556673819 31.145757380321637 0 1 0
902 3 1 -1.78 13.125227797947572 0.5669194277562308 26.496685843236033 0 1 0
1294 4 4 0.61 0.6461591151530035 0.6802410516114931 29.657255072677472 0 1 0
1308 4 6 0.18 0.7603625835662946 0.7087046763262286 33.94354491971542 0 1 0
1500 4 4 0.61 0.564083968768238 0.6065392213655592 35.396966443975614 0 1 0
1364 4 6 0.18 13.139779084164608 0.7529245570286467 31.47861596024576 0 1 0
1344 4 4 0.61 13.111513370536713 0.787737516071512 29.939378244882594 0 1 0
1361 4 6 0.18 13.245140716745034 0.6940372063924569 34.269086205954906 0 1 0
1547 4 4 0.61 13.263876423321241 0.6656155957769931 35.67690240229143 0 1 0
428 2 2 1.42 1.5536314922044132 1.3749518184989251 50.39257362512183 0 0 0
710 2 3 -0.72 12.153198384239918 1.5160905596955718 42.218033705495586 0 0 0
449 2 5 -0.12 2.1043368922204504 7.408378038921871 51.18325912839053 0 0 0
668 2 7 0.12 1.4821686384629662 5.427689599560846 40.532736515638504 0 0 0
488 2 3 -0.72 10.216026197528794 1.0181127753709727 51.167087409960956 0 0 0
510 2 7 0.12 11.765846976127118 5.777609206721396 50.79773810146014 0 0 0
650 2 3 -0.72 0.5131341806682868 3.187281672799455 39.919952587168765 0 0 0
530 2 7 0.12 8.101420865548087 1.5005075337878224 50.08829943306476 0 0 0
724 2 5 -0.12 12.315737059193577 1.8282466656387089 46.35266249344514 0 0 0
481 2 2 1.42 12.020997175237287 1.739752555036812 51.150332548675536 0 0 0
734 2 5 -0.12 5.90022337122326 1.1919195178979587 39.81203819752437 0 0 0
437 2 4 0.61 0.6272978949428036 3.912766758720224 51.60902852548972 0 0 0
654 2 3 -0.72 0.8205504720193555 0.6773956389945543 41.94062205540561 0 0 0
453 2 6 0.18 0.8550898628030728 5.399725798922242 51.74207182387373 0 0 0
457 2 7 0.12 2.7685087333708758 5.492363544556328 50.683767548956 0 0 0
739 2 7 0.12 5.432800523621586 1.8379064789220378 40.58821462701515 0 0 0
494 2 3 -0.72 12.719773837968056 1.8743187126262693 49.2438077393918 0 0 0
1556 4 4 0.61 9.490471617307533 0.49974766064259757 38.96574427125786 0 1 0
663 2 5 -0.12 1.1077270108599349 7.285037041128948 39.40814352725755 0 0 0
501 2 5 -0.12 12.546903028717175 6.26236657955599 51.34961455684163 0 0 0
638 2 2 1.42 1.0574569125333446 1.3458853323202815 40.10144195439349 0 0 0
664 2 5 -0.12 0.9772910676248628 5.912955381285133 39.69361641058376 0 0 0
436 2 3 -0.72 1.3419337641866287 3.2664652880683 50.74320576127184 0 0 0
721 2 7 0.12 11.684849557185554 5.548821103396096 40.83340400844352 0 0 0
729 2 7 0.12 11.850655666047722 2.6489013980811857 46.843937556513296 0 0 0
717 2 5 -0.12 12.562297850752639 6.189614831740382 40.36612415447863 0 0 0
723 2 5 -0.12 12.243138994178867 1.6937517868652403 44.96033356803994 0 0 0
1576 4 6 0.18 12.89564766414833 0.6640628784127407 44.34818771598722 0 1 0
1573 4 6 0.18 13.065821728134571 0.8852517266582407 47.09979684256329 0 1 0
435 2 3 -0.72 1.155045140629757 0.8022315162737368 48.536968061115516 0 0 0
733 2 5 -0.12 7.2562793815236075 1.2702178616863073 39.73048254572342 0 0 0
691 2 2 1.42 11.852146658343802 1.6821376890504398 40.284766264280236 0 0 0
732 2 7 0.12 11.65014454069626 2.4367405793330223 44.28285863895675 0 0 0
657 2 3 -0.72 2.940438072259755 1.2811410324364334 39.473148117364246 0 0 0
1341 4 4 0.61 13.16168117319057 0.9181380236914272 48.585828457914985 0 1 0
521 2 5 -0.12 7.491355240171509 0.9204772219173849 50.783860508761876 0 0 0
742 2 7 0.12 7.70399171476513 2.135612191615889 40.262813782397586 0 0 0
1559 4 4 0.61 12.900943214839 0.6830288925336436 42.85180193641608 0 1 0
522 2 5 -0.12 6.11263604600893 1.00000223654813 50.70643865557605 0 0 0
702 2 4 0.61 13.142568766885653 4.00994108760314 39.396476097505285 0 0 0
527 2 7 0.12 5.663056008212655 1.5607732461504418 49.83822455545007 0 0 0
703 2 3 -0.72 12.172150245205115 3.53253122081498 39.95672735597513 0 0 0
707 2 3 -0.72 9.99103938868816 1.4715903128721468 39.6116633350299 0 0 0
448 2 5 -0.12 2.0001946787659834 6.022694602991416 51.158907993655504 0 0 0
441 2 3 -0.72 3.348080564718113 0.686560983951913 50.49463741498451 0 0 0
502 2 5 -0.12 12.586427182089286 7.636898504099718 51.299371947975615 0 0 0
716 2 5 -0.12 12.626748220724656 7.580987103182053 40.41157098959788 0 0 0
108 1 2 1.42 1.950546122933197 14.078261782600274 1.232793500038465 0 0 0
141 1 5 -0.12 1.1180516734469494 14.266537809120535 7.366442831193625 0 0 0
212 1 7 0.12 8.348820555179476 14.064494643204666 2.393572732809636 0 0 0
387 1 4 0.61 13.253300848822077 12.919703585170325 9.703218883578993 0 0 0
193 1 5 -0.12 12.62996753188124 13.976191065113373 6.039501806526001 0 0 0
127 1 3 -0.72 3.8802612677838675 13.911653775524623 1.0864254934253108 0 0 0
124 1 3 -0.72 1.4943841048745348 13.97309404232464 3.093683839552359 0 0 0
450 2 6 0.18 0.8760178371805121 7.945391969117362 0.31572959757909963 0 0 1
375 1 2 1.42 12.000258583644161 13.903101719862553 12.14591579826839 0 0 0
177 1 3 -0.72 10.742862665560788 14.098938811853808 1.0138070945193411 0 0 0
180 1 3 -0.72 12.935644254189025 14.131072964580138 3.2388450506343336 0 0 0
145 1 6 0.18 0.5821952146256753 13.352253446282017 5.241518323768482 0 0 0
388 1 3 -0.72 12.435082254987176 13.648242823969039 10.31000189405775 0 0 0
125 1 4 0.61 0.6206115659872495 13.324786797112282 3.757024725474736 0 0 0
382 1 3 -0.72 10.13539316540651 13.529891512720852 12.45748011912367 0 0 0
415 1 5 -0.12 7.4163366565772275 13.769113505595643 12.501146242270668 0 0 0
335 1 3 -0.72 3.136630030442891 13.789842835771747 12.29839039457619 0 0 0
416 1 5 -0.12 6.018897765462453 13.899430585182735 12.501499548389114 0 0 0
322 1 2 1.42 1.1613611105270327 14.264523390386659 12.092995472358162 0 0 0
203 1 5 -0.12 7.926914446100306 13.716234277947315 1.4424543520975308 0 0 0
140 1 5 -0.12 1.121132997888942 14.374320669451755 5.99332973914514 0 0 0
194 1 5 -0.12 12.423431902627666 13.819054155885867 7.46447300279719 0 0 0
424 1 7 0.12 8.022530828083475 14.497762168744245 11.913757522420571 0 0 0
629 2 6 0.18 5.906833151962978 12.960236794498984 0.45567854699912214 0 0 1
329 1 3 -0.72 0.939705495585545 14.109543496777126 10.07180501078948 0 0 0
204 1 5 -0.12 6.55291111213827 13.518652156216953 1.5277749849935922 0 0 0
161 1 2 1.42 12.62095652000026 14.38309137573152 1.3611858629962763 0 0 0
202 1 7 0.12 11.919798552998214 14.488716971590652 5.471370790432692 0 0 0
199 1 7 0.12 11.538752019510847 14.241903783880666 7.927032792343839 0 0 0
142 1 6 0.18 0.4937689628221502 13.224999010198413 7.9743529020385635 0 0 0
421 1 7 0.12 5.501779289975436 14.627846584349784 11.823860069432023 0 0 0
209 1 7 0.12 6.036662540137395 13.945916813457812 2.3673168335184394 0 0 0
632 2 6 0.18 8.679494575482357 13.216635558215037 0.339074915657521 0 0 1
372 1 1 -1.78 13.179098206179326 12.728581434739189 13.115578425681482 0 0 0
552 2 4 0.61 4.430854366477109 12.980573065890033 0.39442396845728395 0 0 1
409 1 5 -0.12 12.20313854624401 12.033879658609068 18.96891829405975 0 0 0
333 1 3 -0.72 2.990178564077137 12.460168593109424 14.040985214544394 0 0 0
359 1 7 0.12 1.7158703152379562 12.12855259525059 20.83208267118327 0 0 0
423 1 7 0.12 7.630007331748896 11.114654723581257 14.797447693491002 0 0 0
109 1 2 1.42 1.44016734565467 12.409844929141705 24.96417272658009 0 0 0
380 1 3 -0.72 10.083190204568227 11.875107847206575 14.01059696447385 0 0 0
30 1 7 0.12 1.7189329433595413 8.252463103908532 24.389143695679053 0 0 0
410 1 6 0.18 13.084829038540605 12.773227137644243 18.155550232745888 0 0 0
360 1 7 0.12 1.4634456467567238 11.867169140423824 18.300140441129503 0 0 0
167 1 3 -0.72 12.898287669681563 10.260798614984058 25.0523296880695 0 0 0
128 1 4 0.61 3.9276973312641656 13.479940726186712 25.8331667850178 0 0 0
164 1 2 1.42 12.359843908042311 12.115492026678089 24.991467198408536 0 0 0
413 1 7 0.12 11.53991526672045 11.264577162955417 18.640541867995278 0 0 0
407 1 6 0.18 13.120188350367094 13.069217505238571 20.957704360219072 0 0 0
341 1 3 -0.72 0.7742142212179866 12.457977004644604 16.068769811561207 0 0 0
379 1 3 -0.72 12.21434591784399 9.703740147814594 13.873862312669186 0 0 0
83 1 7 0.12 12.5810142499295 8.135478600596503 23.778408452629897 0 0 0
121 1 3 -0.72 0.9556300147510697 12.685223240321514 22.977129446124476 0 0 0
112 1 3 -0.72 1.0943728547426073 10.55607032538482 25.15257963641821 0 0 0
419 1 5 -0.12 7.246433630549313 11.938306328513619 14.169014275768806 0 0 0
168 1 3 -0.72 12.26576570449086 12.558303238158643 23.149163482978988 0 0 0
355 1 5 -0.12 0.8281097599901809 12.533849544237514 20.262474879595967 0 0 0
179 1 3 -0.72 10.407246748042335 12.369106253768491 25.374529848744974 0 0 0
356 1 5 -0.12 0.8213321978721118 12.52566889190126 18.859666993364495 0 0 0
321 1 2 1.42 1.1048002465103444 11.999252573524657 14.210361918692923 0 0 0
210 1 7 0.12 5.709300953411881 12.01588507296022 24.083511599234633 0 0 0
334 1 4 0.61 3.6658577724092454 13.114652976665553 13.210850793682626 0 0 0
422 1 7 0.12 5.2552659087407525 11.357262108993318 14.545093575180797 0 0 0
211 1 7 0.12 8.217508082682233 12.098023507531451 24.15746137645365 0 0 0
208 1 6 0.18 8.29036896587248 13.313619302616347 25.904198462071935 0 0 0
129 1 3 -0.72 3.388313671001756 12.565536761360656 25.145199533594763 0 0 0
169 1 4 0.61 13.120437176621998 13.242524595653949 22.470544975499397 0 0 0
391 1 3 -0.72 12.27257765679014 11.829582999750977 16.17823668402597 0 0 0
408 1 5 -0.12 12.233687759144319 12.216602922740336 20.365127362643634 0 0 0
324 1 3 -0.72 0.543211863132365 10.13823503611085 14.07703947551368 0 0 0
376 1 2 1.42 11.973200495943653 11.598687010211156 14.263455801695217 0 0 0
418 1 5 -0.12 5.890066630651026 12.0153814539005 13.993620984893006 0 0 0
412 1 7 0.12 11.559831066816148 11.59855872899894 21.00974485952544 0 0 0
381 1 4 0.61 9.531715254430633 12.790528491608715 13.29819176610431 0 0 0
417 1 6 0.18 5.23497962800616 13.029088329150783 13.230072301772376 0 0 0
390 1 4 0.61 13.144439225132448 12.568435650397387 16.712146827011125 0 0 0
420 1 6 0.18 8.022579007424714 12.845357893400397 13.332795346799237 0 0 0
207 1 5 -0.12 7.575362433040577 12.53086232834185 24.972139680898117 0 0 0
378 1 4 0.61 13.186615272206808 9.147782344531814 13.283522765403418 0 0 0
206 1 5 -0.12 6.176555030094833 12.601514417828009 24.882780153514517 0 0 0
205 1 6 0.18 5.474444521919186 13.468807373916832 25.78729878665403 0 0 0
243 1 7 0.12 1.095135658718963 7.890575265746959 15.009050212027487 0 0 0
636 2 7 0.12 8.08234620189651 14.832948002428923 27.463002081077523 0 0 0
812 2 3 -0.72 12.86714035189188 14.379811542302576 35.92434068028754 0 0 0
845 2 7 0.12 5.8292324377168505 14.678031501195187 37.03275876277347 0 0 0
564 2 5 -0.12 1.5437011351924876 13.620971343260445 31.52716151098701 0 0 0
565 2 5 -0.12 1.5385425338553196 13.683094113207135 32.96521277587448 0 0 0
627 2 5 -0.12 7.556757866096934 14.211388716045281 26.67871860968481 0 0 0
601 2 3 -0.72 10.305841106086266 14.162700818243659 26.799654060714065 0 0 0
617 2 5 -0.12 13.114328426072966 14.406770375386246 31.729551832576735 0 0 0
628 2 5 -0.12 6.184310770710748 14.253287776524063 26.69125499431745 0 0 0
551 2 3 -0.72 3.347400218319298 14.29140616003796 26.613109149939557 0 0 0
585 2 2 1.42 12.180215676098445 14.380134199381333 27.087356822402842 0 0 0
618 2 5 -0.12 13.190586546540219 14.491127055760566 33.12743164177023 0 0 0
806 2 3 -0.72 10.672102242238498 14.284095558634784 38.27913345141218 0 0 0
633 2 7 0.12 5.684233311758329 15.05759753845374 27.23043440889831 0 0 0
844 2 6 0.18 8.495828552712496 13.375975041911047 38.80143733700562 0 0 0
532 2 2 1.42 1.4596569407100384 14.589719862920607 27.096277988287568 0 0 0
753 2 3 -0.72 1.1117160142499898 13.931540701719305 35.833337259347516 0 0 0
841 2 6 0.18 5.635527848327975 13.232361769222576 38.6540839866896 0 0 0
839 2 5 -0.12 7.760208595099554 14.17444808500847 37.92359774993896 0 0 0
840 2 5 -0.12 6.370276052918328 14.11256072090927 37.82139543889326 0 0 0
799 2 2 1.42 12.468575802952666 14.477180202963732 37.715442989437534 0 0 0
759 2 3 -0.72 3.547181584510933 14.012293875238989 38.03496659414654 0 0 0
604 2 3 -0.72 12.858555374046382 14.148658049272896 28.922275919336368 0 0 0
746 2 2 1.42 1.5650226769820752 14.112550162113482 37.720680321195616 0 0 0
570 2 7 0.12 2.369904251768038 14.201468908758278 33.600136545537396 0 0 0
573 2 7 0.12 2.380760487602925 14.086565753240059 30.937708841233334 0 0 0
758 2 4 0.61 4.156314378725909 13.070121812592166 38.588083365312386 0 0 0
548 2 3 -0.72 1.3493880765830066 13.760289412839475 28.838681163382258 0 0 0
848 2 7 0.12 8.314933409763018 14.917739134828098 37.38812860911332 0 0 0
566 2 6 0.18 0.5264712019462312 13.060674219877155 33.677823710301396 0 0 0
569 2 6 0.18 0.5172131679216466 12.981961923114856 30.88297332936691 0 0 0
749 2 4 0.61 0.489681226511886 9.438597386023336 38.37473169002854 0 0 0
178 1 4 0.61 9.799687373588451 13.257203826727432 26.081027469299226 0 0 0
842 2 5 -0.12 6.3502446458625865 12.467868901064655 39.53507722484606 0 0 0
602 2 4 0.61 10.282792472859633 13.460410336492908 51.69423588676446 0 0 0
843 2 5 -0.12 7.770448867285208 12.455816411485948 39.61341574257959 0 0 0
837 2 7 0.12 12.204850629414116 11.658369159046018 44.27898328432548 0 0 0
533 2 2 1.42 2.1965540687032306 11.935880329385215 50.50968887850469 0 0 0
546 2 4 0.61 1.326407943407428 12.927758722128909 47.96897641524869 0 0 0
545 2 3 -0.72 2.085339107422837 12.10884493696102 48.59069467416592 0 0 0
836 2 7 0.12 12.547387144966757 11.458455852338377 46.59427545980425 0 0 0
635 2 7 0.12 8.740129025423226 12.267038413244222 49.89359578236987 0 0 0
748 2 3 -0.72 1.3325269814163794 9.94795651323692 39.218806682155616 0 0 0
784 2 7 0.12 2.4911005014645946 11.31900425667759 43.73597740096734 0 0 0
588 2 2 1.42 12.723568992083365 12.211278627340779 50.77982778580889 0 0 0
720 2 7 0.12 11.776338366312634 8.101864096210758 40.88865224673931 0 0 0
815 2 3 -0.72 12.920915693446458 12.357123782353073 41.92483348335372 0 0 0
780 2 5 -0.12 1.89366584905991 12.047764064605287 44.34681977641043 0 0 0
630 2 5 -0.12 6.729577581685544 12.495032653032496 50.84714493947824 0 0 0
553 2 3 -0.72 4.023372493080377 12.245608261081607 51.1400270269267 0 0 0
591 2 3 -0.72 12.684218774583501 10.4503874281732 51.5678218360723 0 0 0
783 2 7 0.12 2.468788903392656 11.193232690922056 46.25611199931565 0 0 0
765 2 3 -0.72 1.5239915025603588 12.115403858520011 41.59753189374233 0 0 0
634 2 7 0.12 6.2262514653746655 11.855108598524591 50.13988255815789 0 0 0
592 2 3 -0.72 13.189808859032796 12.24364680991888 48.8364897828084 0 0 0
804 2 3 -0.72 10.499654779493667 12.670505666741235 39.88367358127239 0 0 0
779 2 5 -0.12 1.9571436001320228 12.0677144662107 45.7510336892494 0 0 0
745 2 2 1.42 1.6822416884493934 11.84286972912532 39.7082601292275 0 0 0
800 2 2 1.42 12.45963235309173 12.189077994441279 40.05726049522892 0 0 0
667 2 7 0.12 1.8534700580896046 7.861597091225884 39.97743688389242 0 0 0
778 2 6 0.18 1.3182322436197245 13.031124182171213 46.4943324382493 0 0 0
631 2 5 -0.12 8.10706279197904 12.763669515479803 50.696317609140266 0 0 0
803 2 3 -0.72 12.460326442379701 10.331879264522303 39.84627432164915 0 0 0
764 2 4 0.61 0.8818188988773978 12.987916773195224 42.234881264036915 0 0 0
847 2 7 0.12 8.340473418264846 11.697498628647663 40.14230040137433 0 0 0
757 2 3 -0.72 3.592081523387544 12.075769915911092 39.17181114618786 0 0 0
833 2 5 -0.12 12.976337392297786 12.311041854661466 44.65717307433472 0 0 0
781 2 6 0.18 1.0832719323124422 12.977933795496751 43.730492054045925 0 0 0
832 2 5 -0.12 13.167575891533136 12.190864945865265 46.04381927239113 0 0 0
846 2 7 0.12 5.8485258060982765 11.801387196958524 40.20845786110648 0 0 0
603 2 3 -0.72 10.827463961014933 12.728368673398597 50.81612626708274 0 0 0
531 2 1 -1.78 1.0996732171080281 13.107812474360985 51.57843775846739 0 0 0
536 2 3 -0.72 1.9647892272056824 10.05936410556085 50.89714809379893 0 0 0
507 2 7 0.12 11.837331140980647 8.230772766277743 50.742429448227 0 0 0
805 2 4 0.61 10.021628723353135 13.438874426350377 39.01192331138461 0 0 0
2473 6 5 -0.12 0.6385050447468066 14.056487597067967 45.828964100798814 1 0 0
454 2 7 0.12 2.8838620811960687 7.932236723373827 50.67680393069692 0 0 0
537 2 4 0.61 1.0499524252630263 9.582415864462126 51.668147860132834 0 0 0
401 1 7 0.12 11.445367903171885 20.458354410147 11.896297765382723 0 0 0
383 1 3 -0.72 12.364199934895177 15.77060500668606 12.259495028996271 0 0 0
133 1 5 -0.12 1.9220792708977306 19.958301128752144 0.6082480033533098 0 0 0
342 1 5 -0.12 0.9927735981322161 18.78937474868182 12.616185648086244 0 0 0
120 1 3 -0.72 1.5481081535444203 15.986759497414397 0.6107812579159612 0 0 0
351 1 7 0.12 1.7038705494680872 18.30203867020859 11.925387038771479 0 0 0
138 1 7 0.12 2.7063156857390296 18.048600527409427 1.125963442174967 0 0 0
343 1 5 -0.12 1.0481139549845548 20.17539452388279 12.670950732604734 0 0 0
395 1 5 -0.12 12.11649696581063 18.458689849381752 12.542784460815128 0 0 0
190 1 7 0.12 11.747374647852217 20.77545380518519 1.556588520030315 0 0 0
404 1 7 0.12 11.551703020987935 17.891160347535923 11.870533620962876 0 0 0
191 1 7 0.12 11.728009772868624 18.277934690823894 1.4228961840447656 0 0 0
186 1 5 -0.12 12.431221826440215 20.27432081861151 0.8683377000326058 0 0 0
137 1 7 0.12 2.3185783282893504 20.316939501858535 1.5710260416018786 0 0 0
348 1 7 0.12 1.5884699343114068 20.677706408740566 11.934156244046976 0 0 0
134 1 5 -0.12 2.0953113849655267 18.641189054694753 0.4058532677437444 0 0 0
330 1 3 -0.72 0.8046774286779772 16.15130495945482 12.450366111916939 0 0 0
187 1 5 -0.12 12.437935246266594 18.873787965173637 0.8263332567653204 0 0 0
173 1 3 -0.72 13.07300458597115 16.23033707891736 1.194361355382096 0 0 0
396 1 5 -0.12 12.067788478206213 19.858000090619015 12.633120289864642 0 0 0
149 1 7 0.12 1.7570284307809287 15.032254312584373 5.507068112613712 0 0 0
146 1 7 0.12 1.5470754030305058 15.071750610185443 7.9834042186787215 0 0 0
397 1 6 0.18 12.939762725920447 20.4939979318046 13.513290154087985 0 0 0
272 1 4 0.61 13.184684923128273 21.979190704272828 13.363030441600818 0 0 0
400 1 6 0.18 12.824849500046712 17.69834335051058 13.504275806659148 0 0 0
384 1 4 0.61 12.858267481743045 16.210557660270922 13.343475107949388 0 0 0
172 1 4 0.61 13.198065017596772 16.879924568968683 25.91276430393819 0 0 0
188 1 6 0.18 13.270251165008037 18.37814670364996 25.915185040313133 0 0 0
615 2 7 0.12 12.299432649007885 18.53450692367676 27.80979744125104 0 0 0
544 2 3 -0.72 1.1406517187836198 16.458278020516744 27.231406974419055 0 0 0
819 2 5 -0.12 12.856282933185222 19.133061680087838 37.94123175889084 0 0 0
820 2 5 -0.12 12.790484342224987 20.548211908304147 37.9628442561599 0 0 0
614 2 7 0.12 12.9099056901703 21.08281597597818 27.888361539112765 0 0 0
828 2 7 0.12 12.295814905696185 18.536739811384635 37.1636905739457 0 0 0
562 2 7 0.12 1.997347555302764 18.528886675127342 27.972079451038084 0 0 0
597 2 3 -0.72 12.419964081683256 16.333970205863594 26.737785161702362 0 0 0
825 2 7 0.12 12.251222741064062 21.12923393071345 37.18064351176473 0 0 0
766 2 5 -0.12 1.3849613022326959 18.598572918639345 38.10609732109275 0 0 0
610 2 5 -0.12 13.105114639744407 20.453373105427154 27.012475102571 0 0 0
611 2 5 -0.12 12.81414952319325 19.074281437727322 27.007259689310235 0 0 0
767 2 5 -0.12 1.346456607020263 20.016367968786334 38.06343966959892 0 0 0
561 2 7 0.12 2.4086054875615126 21.19683049379872 28.11041848244629 0 0 0
807 2 3 -0.72 12.779166852751876 16.474047860569197 37.99725089351625 0 0 0
132 1 6 0.18 0.7080257674020976 21.482681363753017 26.825105654858444 0 0 0
558 2 5 -0.12 1.3801707998384614 19.270203153591915 27.46323467566118 0 0 0
557 2 5 -0.12 1.6258510217365518 20.703585473080523 27.590628294145297 0 0 0
775 2 7 0.12 1.801329474745092 18.060223565709702 37.32254628420009 0 0 0
754 2 3 -0.72 1.1426695773849294 15.807293184057876 38.19665115236835 0 0 0
772 2 7 0.12 1.9336725477170595 20.55285439586193 37.262700680207885 0 0 0
626 2 7 0.12 12.785657731074032 15.348296467779935 31.19709688239771 0 0 0
623 2 7 0.12 12.995285898615741 15.519202162320523 33.589896979032744 0 0 0
556 2 6 0.18 1.1466094099406003 20.847399368036033 51.28503531097189 0 0 0
609 2 6 0.18 13.46567106094315 21.163598022845328 51.52405134086678 0 0 0
431 2 4 0.61 0.9574608265090115 22.29630607542831 51.577297949468786 0 0 0
543 2 4 0.61 1.0619990337224143 16.713492598591706 51.1063358947321 0 0 0
559 2 6 0.18 1.2634074228746996 18.195101958764678 50.99710395093703 0 0 0
643 2 4 0.61 0.6487381118348884 22.259600102314074 39.01887941831937 0 0 0
3 1 2 1.42 1.7268412321093187 24.528921023609065 1.567435215514681 0 0 0
227 1 3 -0.72 0.8479564244098501 24.95662903291543 10.389142971024535 0 0 0
105 1 7 0.12 8.311826521648005 24.784559294251608 2.1681866245763843 0 0 0
42 1 7 0.12 1.2567386608654942 23.72462891820934 5.703331244578399 0 0 0
41 1 7 0.12 1.2565126373856828 23.71483202276106 8.078983631668205 0 0 0
38 1 5 -0.12 0.9081187379705524 24.633946401278855 6.247500066416548 0 0 0
235 1 3 -0.72 3.2522977660355297 25.068252987459147 12.215448104984732 0 0 0
285 1 3 -0.72 10.233669154353814 24.77364349253383 12.227369095174296 0 0 0
275 1 4 0.61 13.21713984198746 25.65206655984704 9.622373230005753 0 0 0
312 1 5 -0.12 6.04932988248409 24.875376800445036 12.26652473884201 0 0 0
523 2 6 0.18 5.546882167436145 26.062649295208406 0.6835756601458838 0 0 1
58 1 2 1.42 12.203483040782318 24.826559642833388 1.288182639854166 0 0 0
91 1 5 -0.12 12.5073020783201 24.824559729148103 5.9093388708327765 0 0 0
317 1 7 0.12 7.885853247883395 24.143973733749032 11.421636462910486 0 0 0
23 1 3 -0.72 1.3690621745999911 24.945798737028877 3.554649635892132 0 0 0
316 1 7 0.12 5.47296623890223 24.361647265284695 11.589572984615824 0 0 0
6 1 3 -0.72 1.5292615701153838 22.622668546762927 1.0003273702661837 0 0 0
273 1 3 -0.72 12.479053236102477 22.592124152408424 12.530407195846939 0 0 0
61 1 3 -0.72 12.570674707000352 22.99326071248904 0.950656227625784 0 0 0
270 1 2 1.42 12.173313030479356 24.509315565561085 12.128264512548279 0 0 0
90 1 5 -0.12 12.294493839853462 24.88036965863938 7.3404493255965715 0 0 0
95 1 7 0.12 11.840559759842499 24.18997988528183 5.359449227635231 0 0 0
274 1 3 -0.72 12.48553877108307 24.77433709887418 10.201886713226857 0 0 0
94 1 7 0.12 11.616380312123722 24.139621588275443 7.727199391550441 0 0 0
215 1 2 1.42 1.3108419061644272 24.73460269254966 12.206538501228492 0 0 0
73 1 3 -0.72 12.45007879286336 25.235343426932047 3.1722975590387574 0 0 0
62 1 3 -0.72 10.323565391862449 25.18802803756269 0.7854522082609561 0 0 0
101 1 5 -0.12 7.707931563431359 25.428443733381656 1.4932784984693344 0 0 0
440 2 4 0.61 4.033553343843309 25.906397670082413 0.76499601959033 0 0 1
218 1 3 -0.72 0.8741321532541969 22.893063849376034 12.628181442379903 0 0 0
15 1 3 -0.72 3.5080565795860754 25.02206504944639 1.4766180405819715 0 0 0
37 1 5 -0.12 0.834966600139437 24.635082781255928 7.621830190939172 0 0 0
100 1 5 -0.12 6.290500888501073 25.213152530025344 1.4991880538890014 0 0 0
487 2 4 0.61 9.771070320450772 26.281426336658303 0.43921445784896707 0 0 1
526 2 6 0.18 8.314551993360018 26.350057707698305 0.5777374373979172 0 0 1
313 1 5 -0.12 7.461410181180238 24.822059435164917 12.217051809906685 0 0 0
104 1 7 0.12 5.731589470013822 24.49553756739987 2.0898890437841313 0 0 0
92 1 6 0.18 13.298174541732333 25.773060056755885 5.268659388073475 0 0 0
89 1 6 0.18 13.073777278313578 25.729465228455584 8.129465612684484 0 0 0
1073 3 4 0.61 0.6170869218790904 29.56715154705215 13.115998803940146 0 0 0
234 1 4 0.61 3.903969833188404 25.731800724167492 13.064195248961356 0 0 0
1131 3 3 -0.72 10.233987821763622 25.986025395802702 14.173989730221365 0 0 0
1103 3 7 0.12 2.8379171874894924 27.325351526746402 18.55453379047829 0 0 0
859 3 3 -0.72 1.946984985138325 26.948566152206936 23.168043878301127 0 0 0
860 3 3 -0.72 2.5794905492154863 29.36787526281978 25.191866296402846 0 0 0
1078 3 3 -0.72 1.695863145742313 26.997804033230846 16.40121515371596 0 0 0
865 3 3 -0.72 4.417479631175047 26.802628165900785 25.101408886771555 0 0 0
1127 3 3 -0.72 12.57593242184519 28.360193881728414 14.511918550042429 0 0 0
1134 3 3 -0.72 12.47472038570077 26.13229520896574 16.460106829254023 0 0 0
1158 3 5 -0.12 6.181909420419058 26.275538581018367 14.209352922940427 0 0 0
1095 3 5 -0.12 2.154691772588011 26.767017377416348 20.405752783865577 0 0 0
852 3 2 1.42 2.5818086383844117 27.368889941035242 25.01814406439401 0 0 0
918 3 3 -0.72 13.297136365996918 26.820484367615215 23.198776146153747 0 0 0
1081 3 3 -0.72 3.4193953711035614 26.517229595754838 13.945771304153334 0 0 0
1100 3 7 0.12 2.969205163666167 27.20970194008965 20.919230017761016 0 0 0
1156 3 7 0.12 12.775194459298575 27.512430749344077 18.36996465790609 0 0 0
905 3 2 1.42 13.251259415806222 27.347042780663408 25.04456887322386 0 0 0
912 3 3 -0.72 11.356627202990717 26.813335563022328 25.277734729055187 0 0 0
945 3 5 -0.12 8.590996328912578 27.098598083032357 25.255780591590835 0 0 0
1094 3 5 -0.12 2.1064989213352003 26.718604970009864 19.03312040823908 0 0 0