LAMMPS data file via write_data, version 29 Sep 2021, timestep = 600513

3392 atoms
7 atom types
4096 bonds
6 bond types
7296 angles
9 angle types
12288 dihedrals
11 dihedral types
1536 impropers
3 improper types

0.3309217817305061 51.72780421827224 xlo xhi
0.3771054006165073 51.68606259937819 ylo yhi
0.3238348989808735 51.73285710101938 zlo zhi
-0.26306901021650025 0.34844976922469667 0.08321559182760549 xy xz yz

Masses

1 15.9994
2 65.38
3 15.9994
4 12.0107
5 12.0107
6 12.0107
7 1.0079

Pair Coeffs # buck6d/coul/gauss/long

1 10856 3.2967 308.776 1.60225 0.632701
2 50784 2.62009 5731.71 39.9418 0.341054
3 10856 3.2967 308.776 1.60225 0.632701
4 10304 3.09278 429.894 3.91702 0.608002
5 10304 3.06122 457.18 4.52185 0.60801
6 10304 3.06122 457.18 4.52185 0.608002
7 3680 4 32.805 0.106908 0.977155

Dihedral Coeffs # opls

1 0 0 0 0
2 0 0 0 0
3 0 0 0 0
4 0 0.076 0 0
5 0 3.012 0 0
6 0 1.902 0 0
7 0 4.379 0 0
8 0 6.316 0 0
9 0 5.972 0 0
10 0 0 0 0
11 0 0 0 0

Improper Coeffs # inversion/harmonic

1 13.5247 0
2 1.36686 0
3 63.3072 0

Atoms # full

289 1 5 -0.12 13.082357837909568 6.2733554768941495 12.751677883405277 0 0 0
920 3 4 0.61 12.834405527035942 0.6711593799068942 4.318596607520946 0 1 0
490 2 4 0.61 13.030289537094367 3.9013780476157796 0.35599621862434017 0 0 1
506 2 6 0.18 13.059032214722954 5.419895542931399 0.43211161510275536 0 0 1
1123 3 4 0.61 12.407419033696936 0.6743524183134633 10.05360520951766 0 1 0
1374 4 6 0.18 7.918743950246852 0.48022522954809455 0.4985581438606226 0 1 1
937 3 6 0.18 12.434199460888028 0.8079967326715464 8.552989465850665 0 1 0
940 3 6 0.18 12.539611573273378 0.8329153884898539 5.813728305602453 0 1 0
290 1 5 -0.12 13.0345927815745 7.682748442148884 12.66362513320451 0 0 0
1159 3 6 0.18 4.899091342347633 0.5250817345419507 12.907885102265903 0 1 0
87 1 5 -0.12 13.18823590819576 1.8314103350602977 6.518458991772402 0 0 0
88 1 5 -0.12 13.062580928148797 1.8770086338929044 7.907446139196735 0 0 0
276 1 3 -0.72 12.747596072558581 1.6996552561624862 10.720918927835447 0 0 0
1162 3 6 0.18 7.666097805802985 0.6225618450678588 13.010926818037557 0 1 0
1371 4 6 0.18 5.08826151964918 0.43258595311762044 0.4003989226183499 0 1 1
1082 3 4 0.61 3.453702924631357 0.4005811588567264 12.966216642224763 0 1 0
4 1 2 1.42 1.5871816028721275 1.2295516023759552 24.29885839203007 0 0 0
240 1 5 -0.12 0.9120686380656314 5.986402470714286 13.946162415431676 0 0 0
308 1 7 0.12 11.815480593091092 2.204564153700118 18.855191048497087 0 0 0
12 1 3 -0.72 1.4959020411690367 3.1333178141342684 24.890930220025414 0 0 0
226 1 3 -0.72 0.8844283253008074 3.2546745313735665 13.68448421574761 0 0 0
103 1 7 0.12 5.924915726604578 1.6889317189919542 24.343220542913325 0 0 0
286 1 3 -0.72 11.876893540354725 0.9874482759713478 16.59651934355695 0 0 0
70 1 3 -0.72 12.251839295337646 0.7977014561701836 23.37935071824815 0 0 0
315 1 7 0.12 4.951060046613449 1.8115788893734042 14.718422056173374 0 0 0
57 1 2 1.42 12.10261693825219 1.2742179170516827 25.310851448798736 0 0 0
78 1 5 -0.12 12.820775109543519 7.262262328537485 25.452668505164837 0 0 0
309 1 5 -0.12 6.921090476181663 1.4659649388830938 13.922205966928873 0 0 0
299 1 5 -0.12 12.401005075354117 1.4015524558256351 19.36119515711595 0 0 0
300 1 5 -0.12 12.41093367674705 1.2697580165584443 20.73068215467244 0 0 0
77 1 5 -0.12 12.653474639552703 5.909288169197303 25.43233615944502 0 0 0
305 1 7 0.12 11.627788406751634 1.8027291265605305 21.365211109204406 0 0 0
297 1 7 0.12 11.57015567531801 5.92291888123334 15.873320299392994 0 0 0
13 1 4 0.61 0.8072752859235343 3.8575183352763203 25.69387142428708 0 0 0
25 1 5 -0.12 1.9376841639034752 7.41764400561698 24.90859701404868 0 0 0
233 1 3 -0.72 2.918385438663301 0.8247748604296259 14.025097632030059 0 0 0
214 1 2 1.42 1.106226095527752 1.4559480089236245 14.041048780751114 0 0 0
65 1 3 -0.72 12.7565419105138 3.109891498283926 25.315397695791056 0 0 0
293 1 5 -0.12 12.05303100736728 6.390214800294414 14.96767668140551 0 0 0
1135 3 4 0.61 12.940754007012938 0.4601811667726269 17.096399812058504 0 1 0
246 1 5 -0.12 0.867624048496447 1.0027922290203848 18.46214772902083 0 0 0
33 1 7 0.12 2.8207524518168 5.443908073437634 24.60482941862719 0 0 0
86 1 7 0.12 11.755805084326731 5.392190947267333 24.809165125800074 0 0 0
17 1 3 -0.72 3.450390176598269 0.7442478964447912 24.694638615309433 0 0 0
310 1 5 -0.12 5.491720889292677 1.311191624521793 13.900154557369694 0 0 0
106 1 7 0.12 8.06898738531649 2.200259953963343 25.207366718726682 0 0 0
64 1 3 -0.72 10.255704484033528 1.1366024038643623 25.793492149514385 0 0 0
267 1 2 1.42 11.57275990404961 1.6479807404443056 14.758027310101038 0 0 0
97 1 5 -0.12 7.544568165945563 1.279555801572803 25.610641095852575 0 0 0
244 1 7 0.12 1.422363184110044 5.37141922908928 14.6466903345841 0 0 0
11 1 3 -0.72 1.0192519326928946 0.961507179186984 22.49525486877439 0 0 0
24 1 5 -0.12 1.9593809742547643 6.010352641164725 24.960489987160916 0 0 0
98 1 5 -0.12 6.233758349027376 1.160226225995403 25.190755108051693 0 0 0
255 1 7 0.12 1.608697400471434 1.506454836668346 17.878546672308186 0 0 0
1114 3 1 -1.78 12.725209285218444 0.5685194111786998 13.58058586146562 0 1 0
318 1 7 0.12 7.386682522834851 2.2001052479247187 14.611771150965431 0 0 0
247 1 5 -0.12 0.9502098595492685 1.0588745685884917 19.855808597423838 0 0 0
283 1 3 -0.72 9.62579511475327 1.277592439628948 14.14569575685466 0 0 0
279 1 3 -0.72 11.815193250118416 3.532856996234351 14.765508026697661 0 0 0
29 1 6 0.18 0.8607437730917731 5.34227004182254 25.54554535279867 0 0 0
1152 3 6 0.18 13.16722651460822 0.5237633641819704 18.573537444009414 0 1 0
252 1 7 0.12 1.7247425060777426 1.6367020087856212 20.302936078114456 0 0 0
239 1 5 -0.12 1.0215015091232544 7.4287882178226345 13.816821785562336 0 0 0
294 1 6 0.18 12.562607303862597 5.654762992721662 13.901388286619772 0 0 0
278 1 4 0.61 12.557270894940066 4.11116548534998 13.903222284187976 0 0 0
1132 3 4 0.61 9.141159292673573 0.5575196161043161 13.214783269046022 0 1 0
665 2 6 0.18 0.8834072899520986 5.471910105853088 38.42749830783532 0 0 0
649 2 4 0.61 0.5955058732247946 4.003819784217018 38.47771610025134 0 0 0
1500 4 4 0.61 0.7484629143449217 0.7657931518966068 34.987238504161155 0 1 0
1308 4 6 0.18 0.652220613549856 0.6882402036556968 33.483328365282034 0 1 0
428 2 2 1.42 1.4830702933472124 1.5274868391864103 50.2054561181248 0 0 0
668 2 7 0.12 2.43189422727862 5.276704260945937 39.90825112862923 0 0 0
707 2 3 -0.72 10.438545629278332 1.1610103271562364 40.15044392397354 0 0 0
510 2 7 0.12 11.892407772118593 5.764726937842552 50.366611155621314 0 0 0
650 2 3 -0.72 1.3269431415959287 3.2454269701108807 39.24959064110452 0 0 0
436 2 3 -0.72 1.4390342168521513 3.4334032218058534 50.68007572002027 0 0 0
448 2 5 -0.12 1.7905697115682013 6.142025840529731 50.71362627920618 0 0 0
732 2 7 0.12 12.477191959314762 2.425347493693663 44.42575423932627 0 0 0
739 2 7 0.12 5.677368538393649 1.9951185593997451 40.32693319688326 0 0 0
481 2 2 1.42 12.17625194870705 1.5392563877584855 50.87461379979378 0 0 0
671 2 5 -0.12 0.7994296810834954 1.4258138400586782 45.748420223293905 0 0 0
654 2 3 -0.72 1.2274403261429707 1.316139421418999 41.575527434218586 0 0 0
702 2 4 0.61 13.282883445959104 3.968946108594361 39.18550443363142 0 0 0
670 2 5 -0.12 0.8186961456032427 1.4908261835525534 44.30123252683431 0 0 0
664 2 5 -0.12 1.8896819030049072 5.948496153520156 39.264826033912954 0 0 0
530 2 7 0.12 8.138898107606732 1.8831308725859437 50.11508646156314 0 0 0
657 2 3 -0.72 3.618424689023511 0.9490276770314275 39.74300951007709 0 0 0
729 2 7 0.12 12.2293823227795 2.288023671475986 46.710615633273775 0 0 0
501 2 5 -0.12 12.509752777012963 6.28185928012573 51.10545006546819 0 0 0
457 2 7 0.12 2.5564595356566415 5.498459720531305 50.24762544041609 0 0 0
638 2 2 1.42 1.7239043408206651 1.4543401920062191 39.75026642355236 0 0 0
710 2 3 -0.72 12.938133054010773 1.375349582930252 42.256032861543275 0 0 0
449 2 5 -0.12 1.9498630627953495 7.542036766217595 50.74049677209766 0 0 0
742 2 7 0.12 8.186842642086571 1.8480419268551824 40.79153300162375 0 0 0
494 2 3 -0.72 12.432944883788721 1.1612114641146982 49.12777447657297 0 0 0
723 2 5 -0.12 13.046784451680075 1.6950099703578672 44.91796627225821 0 0 0
502 2 5 -0.12 12.559570781790747 7.657009839244371 51.1937961966927 0 0 0
717 2 5 -0.12 12.22729704524679 6.13203480660125 39.7382615031767 0 0 0
527 2 7 0.12 5.7527135919251515 1.9286706691649873 50.11743754983556 0 0 0
521 2 5 -0.12 7.61387068325064 1.3150265489295268 50.925705339593065 0 0 0
679 2 7 0.12 1.4028943002017251 2.2866971684887174 43.86482662940806 0 0 0
691 2 2 1.42 12.331350036759883 1.495499913335427 40.38085527333001 0 0 0
489 2 3 -0.72 12.335872822038509 3.4939730184462587 51.20220404980138 0 0 0
488 2 3 -0.72 10.360911005115469 0.9864614378685181 50.99624277788453 0 0 0
441 2 3 -0.72 3.4535470835545468 0.9579479940540122 50.599611927698604 0 0 0
676 2 7 0.12 1.3896242311740192 2.165268325805073 46.281282893505676 0 0 0
721 2 7 0.12 11.367160753160553 5.5818294879110155 40.1811910530333 0 0 0
703 2 3 -0.72 12.270280692435536 3.435843677691566 39.78548790257241 0 0 0
724 2 5 -0.12 12.996503716442557 1.6749098490330483 46.31086318426894 0 0 0
663 2 5 -0.12 2.0445817565092455 7.323151151589378 39.45378900454229 0 0 0
522 2 5 -0.12 6.186154427463341 1.3014827254776298 50.91930078454753 0 0 0
733 2 5 -0.12 7.672101505445474 1.1424544576041575 39.9990056217774 0 0 0
734 2 5 -0.12 6.291848751228865 1.222526836009775 39.86525198695391 0 0 0
718 2 6 0.18 13.287071677044183 5.421731990173675 39.12226459266759 0 0 0
716 2 5 -0.12 12.320543194721989 7.53747259588206 39.750186843449995 0 0 0
667 2 7 0.12 2.811597544651256 7.655608613040146 40.170055961360006 0 0 0
1341 4 4 0.61 13.447345083343231 0.48737841603390003 48.59954486593493 0 1 0
435 2 3 -0.72 0.6769149476947746 1.3350971947586041 48.37655885885174 0 0 0
212 1 7 0.12 8.498643412680186 14.003423937199825 2.438156968309308 0 0 0
388 1 3 -0.72 11.908271389853395 13.496901019243497 10.44322604474255 0 0 0
124 1 3 -0.72 1.1460003048665564 14.02442884890796 3.21865954458067 0 0 0
202 1 7 0.12 11.523035604528046 14.026610914494087 5.5794118257086485 0 0 0
180 1 3 -0.72 12.71075517241026 13.90691900366245 3.51511921088609 0 0 0
145 1 6 0.18 0.7175697835027453 13.016574179527828 5.2075618606005944 0 0 0
322 1 2 1.42 1.5393951141320539 14.472569091259263 12.002437093384408 0 0 0
375 1 2 1.42 11.73883465000586 14.446264418462645 12.229417167210798 0 0 0
141 1 5 -0.12 1.354916181138706 14.061199950909204 7.236991414532633 0 0 0
125 1 4 0.61 0.7094025920717859 12.95965616568008 3.73248004551217 0 0 0
325 1 4 0.61 0.431759852444779 9.59933139042536 12.877619698217343 0 0 0
415 1 5 -0.12 7.419164285340434 14.034778236025648 12.79665916073493 0 0 0
149 1 7 0.12 1.577752256247592 14.837146948717292 5.155542078350213 0 0 0
416 1 5 -0.12 6.035477024574681 13.822168336942575 12.593877216346467 0 0 0
382 1 3 -0.72 9.96421547395593 14.384366495309225 13.114067580556503 0 0 0
195 1 6 0.18 13.00380445119033 12.924914802840732 8.403613682516802 0 0 0
203 1 5 -0.12 7.815060595845175 13.686444025010648 1.567653674165695 0 0 0
329 1 3 -0.72 1.1859414588827548 14.219948813482876 10.004614339349624 0 0 0
161 1 2 1.42 12.292541785368739 14.093839259950752 1.641965761474181 0 0 0
424 1 7 0.12 7.942304645861905 14.723015963342554 12.119513911870014 0 0 0
140 1 5 -0.12 1.3680052512408944 14.026892199930828 5.805900637994944 0 0 0
108 1 2 1.42 1.7542993689890833 14.195978069086298 1.3548446647811299 0 0 0
199 1 7 0.12 11.13301427499808 13.947012952154768 7.827965715398741 0 0 0
177 1 3 -0.72 10.571657006938324 13.245852545676081 1.4587690886471336 0 0 0
328 1 4 0.61 0.5342262212528244 13.286929927633949 9.472549006305846 0 0 0
335 1 3 -0.72 3.3417932482979573 13.98538993458352 12.533499166981988 0 0 0
127 1 3 -0.72 3.594335990709696 13.634093204620548 1.4459428726771342 0 0 0
204 1 5 -0.12 6.418107490269437 13.80188147787879 1.4994740364395613 0 0 0
193 1 5 -0.12 12.322311084213695 13.63801284735932 6.1745639277318505 0 0 0
194 1 5 -0.12 12.028247536513678 13.469548387910923 7.530992274598412 0 0 0
503 2 6 0.18 13.102060859720616 8.18126257794691 0.6884208240517975 0 0 1
421 1 7 0.12 5.5281192979935145 14.312918105805636 11.794664271252586 0 0 0
209 1 7 0.12 5.806235739634441 14.0206733458538 2.4001975319402726 0 0 0
387 1 4 0.61 12.942416815194907 12.912481564750871 9.975063862342672 0 0 0
142 1 6 0.18 0.6537423223432 13.070552823954637 7.969598218771789 0 0 0
146 1 7 0.12 1.7720619293667397 14.962236891744652 7.654022153697162 0 0 0
629 2 6 0.18 5.653655444499885 13.399497954699875 0.36126900292844133 0 0 1
632 2 6 0.18 8.445339634105201 13.170019158870819 0.441318293046221 0 0 1
552 2 4 0.61 4.226260165123331 13.309258179161102 0.4167182336449145 0 0 1
602 2 4 0.61 9.949926616579445 12.968865277349414 0.3692143800881618 0 0 1
295 1 7 0.12 13.176486879951877 8.231016386594003 11.729748268606023 0 0 0
1822 5 3 -0.72 0.3111808066997769 11.90467185632046 3.1181017053626556 1 0 0
355 1 5 -0.12 1.4023794113244494 12.004138739144302 20.176238938676118 0 0 0
379 1 3 -0.72 11.939902076758734 10.553875013689222 14.37044675709836 0 0 0
417 1 6 0.18 5.307704042198953 13.338263601658443 13.61544867308496 0 0 0
207 1 5 -0.12 8.34312083575816 12.285122596160544 25.027356623036997 0 0 0
109 1 2 1.42 2.21418744846961 12.0380922549231 24.732466989714748 0 0 0
357 1 6 0.18 0.42947787117089953 12.964254451299867 18.14195636558161 0 0 0
296 1 7 0.12 11.72754481005962 8.312936858675076 15.794008941065936 0 0 0
391 1 3 -0.72 12.304554319041545 12.817828453605838 16.577580318518162 0 0 0
341 1 3 -0.72 0.6738254505774559 12.06494538084385 16.025341275856555 0 0 0
210 1 7 0.12 6.509858274117886 11.560032473900314 24.286765588950416 0 0 0
413 1 7 0.12 12.12796218294508 11.705674960559437 18.575091260777178 0 0 0
164 1 2 1.42 13.05093617609118 11.8679840314697 24.97039236597534 0 0 0
422 1 7 0.12 5.28213437317108 12.425236914812825 15.628481377083377 0 0 0
376 1 2 1.42 11.95832207254243 12.464293499853175 14.679721679613095 0 0 0
178 1 4 0.61 10.573947253337918 13.144103788027522 25.91284202962262 0 0 0
333 1 3 -0.72 3.147243908558655 12.570104669471432 14.27587208856789 0 0 0
83 1 7 0.12 12.254576045552968 7.837487851063259 24.68789540495729 0 0 0
419 1 5 -0.12 7.250437387916619 13.140448407060386 15.132250095487091 0 0 0
409 1 5 -0.12 12.820494618055502 12.382170734041066 19.144108924242346 0 0 0
324 1 3 -0.72 1.2564927964166839 10.139623032353663 13.65591874000732 0 0 0
129 1 3 -0.72 4.141730216595629 12.474673700310623 24.817810627280682 0 0 0
206 1 5 -0.12 6.965201369143274 12.276392015764285 25.02044795465526 0 0 0
128 1 4 0.61 4.72753617819722 13.141690358828983 25.757772844412067 0 0 0
423 1 7 0.12 7.699877299927278 12.968774660446849 16.113862583746517 0 0 0
321 1 2 1.42 1.2897383089069685 12.063772806048966 14.155287517668407 0 0 0
359 1 7 0.12 1.8089241978406414 11.113177662408498 20.666592420939587 0 0 0
243 1 7 0.12 1.6803286658488628 7.954566169550451 14.541040704476368 0 0 0
205 1 6 0.18 6.233948398104861 13.140121978387526 25.757053445232536 0 0 0
121 1 3 -0.72 1.8525701902091516 12.305572571876768 22.870956958969803 0 0 0
208 1 6 0.18 9.02046986982663 13.19289463585535 25.893192427588456 0 0 0
380 1 3 -0.72 10.084585309688391 12.797651903666043 14.759974543991513 0 0 0
418 1 5 -0.12 5.895221386957505 12.914292817595042 14.875050433164391 0 0 0
179 1 3 -0.72 11.107774890917698 12.259899526819002 25.216441047207987 0 0 0
211 1 7 0.12 8.802791286946062 11.564748046504276 24.36686888705815 0 0 0
356 1 5 -0.12 1.2205744143791604 11.962854326632803 18.773260081742244 0 0 0
360 1 7 0.12 1.7099424282337112 11.139994958528247 18.24185428228048 0 0 0
107 1 1 -1.78 1.1073209468391696 13.219830191836051 25.88777020938252 0 0 0
112 1 3 -0.72 1.9300743048985916 10.138826297346876 25.063479087809302 0 0 0
122 1 4 0.61 0.989481388488205 13.059159784016927 22.32604471248372 0 0 0
113 1 4 0.61 1.0884829451936031 9.615604598740482 25.79666670606033 0 0 0
420 1 6 0.18 7.989216202235535 13.598069384680485 13.971141089661723 0 0 0
26 1 6 0.18 0.9404439978469968 8.154603444771972 25.555816179587254 0 0 0
354 1 6 0.18 0.8548235923434027 13.074489579499772 20.850129759186462 0 0 0
381 1 4 0.61 9.41987777968613 13.56717531434377 13.96918865873228 0 0 0
30 1 7 0.12 2.863983417226734 7.818672030360385 24.4565519370193 0 0 0
412 1 7 0.12 12.411008189732506 11.448449132639327 20.982749771362883 0 0 0
378 1 4 0.61 12.725390993401646 9.895536704787396 13.634989459929324 0 0 0
372 1 1 -1.78 13.009108215248299 13.497271585889118 13.350150534412782 0 0 0
408 1 5 -0.12 13.126489128470093 12.152634413219925 20.430698806987117 0 0 0
291 1 6 0.18 12.633526912764948 8.410583174626606 13.791798534913887 0 0 0
292 1 5 -0.12 12.121887691022078 7.757561414443996 14.943387444226072 0 0 0
334 1 4 0.61 3.827285467794878 13.278488297778381 13.445275417988203 0 0 0
167 1 3 -0.72 13.288926274407704 9.861159383341692 25.236146035650222 0 0 0
623 2 7 0.12 12.121097941873563 14.24471403616061 33.78941942862127 0 0 0
752 2 4 0.61 1.2667574740347283 13.234192592118795 35.35083122342151 0 0 0
758 2 4 0.61 4.851038546660247 13.458846964923382 38.77614867184059 0 0 0
759 2 3 -0.72 4.261584301316316 14.137143083943176 37.81702098963038 0 0 0
636 2 7 0.12 8.865982496179313 14.80670130497099 27.283821329433348 0 0 0
753 2 3 -0.72 2.136397958441049 14.012826986113799 35.809444254431085 0 0 0
839 2 5 -0.12 8.485903336949683 14.614478098762081 38.249757141928896 0 0 0
601 2 3 -0.72 11.086662328300116 14.018845055296678 26.619740754045687 0 0 0
532 2 2 1.42 2.375259861743016 14.257342079312311 26.976572831634616 0 0 0
617 2 5 -0.12 12.824496437492007 13.565879362810751 31.8807419636807 0 0 0
662 2 6 0.18 1.2462764448163883 8.185177129533855 38.691433729848896 0 0 0
840 2 5 -0.12 7.092799405030381 14.46676969541636 38.03918175723989 0 0 0
604 2 3 -0.72 13.0671928935535 13.507054847561145 29.11841300499373 0 0 0
746 2 2 1.42 2.3342038729471155 14.436150885212996 37.695203859041655 0 0 0
549 2 4 0.61 1.3042444816388898 12.948562532498475 29.537623055326655 0 0 0
566 2 6 0.18 1.2173657176841666 13.08644334783603 33.873909385565824 0 0 0
626 2 7 0.12 12.128744483877885 14.168500955825305 31.254734563082057 0 0 0
633 2 7 0.12 6.325802657478369 14.851265780820658 27.109025269513904 0 0 0
627 2 5 -0.12 8.322581690108343 14.051235869570576 26.759116754903243 0 0 0
628 2 5 -0.12 6.905112281693519 14.049603140378414 26.64834943167858 0 0 0
570 2 7 0.12 3.415762009586265 13.604559128898497 33.541174739373304 0 0 0
806 2 3 -0.72 11.368096181507163 14.448317827881716 38.55444444968522 0 0 0
585 2 2 1.42 13.009102172918416 14.06084244552819 27.224012390895187 0 0 0
548 2 3 -0.72 2.13637445675543 13.700071467916864 28.93452041448513 0 0 0
564 2 5 -0.12 2.40935704033446 13.386545927575742 31.73342286889255 0 0 0
799 2 2 1.42 13.171869539110443 14.453688359438942 37.92133832485722 0 0 0
573 2 7 0.12 3.350492710857801 13.61248769557933 31.189869902121806 0 0 0
569 2 6 0.18 1.2815526258865872 12.976348071568456 31.027356741411957 0 0 0
749 2 4 0.61 1.2879895567925983 9.66216894246643 38.72914981331762 0 0 0
565 2 5 -0.12 2.401251354287589 13.448878666647515 33.12458693951548 0 0 0
743 2 1 -1.78 1.1734565705849442 13.334637157249247 38.78488783809023 0 0 0
551 2 3 -0.72 4.241623758694052 13.855733267002368 26.690174328746973 0 0 0
812 2 3 -0.72 13.18376815678282 14.042897633598248 36.03422063385136 0 0 0
618 2 5 -0.12 12.937809261456646 13.64794364357227 33.29071388640284 0 0 0
833 2 5 -0.12 13.326907859685623 12.426794058972838 44.73071267125361 0 0 0
630 2 5 -0.12 6.714778988091387 13.183670512147737 50.54820053342664 0 0 0
545 2 3 -0.72 1.69879113173946 12.540453332306642 48.57294657021782 0 0 0
847 2 7 0.12 8.865445750055384 12.324479121229125 40.82017982959779 0 0 0
533 2 2 1.42 2.258452500541559 12.204847768395435 50.45511718124672 0 0 0
757 2 3 -0.72 4.278122391347328 12.562009908017362 39.51203404954221 0 0 0
454 2 7 0.12 2.914787201960887 8.00290014588565 50.40516051427247 0 0 0
781 2 6 0.18 0.8479100456728442 13.138942433379421 43.76361774186971 0 0 0
450 2 6 0.18 0.8995838987024721 8.259270874755083 51.2430039840781 0 0 0
843 2 5 -0.12 8.366637530825853 12.993114937142149 40.03119341107187 0 0 0
805 2 4 0.61 10.63138210872349 13.780027519512927 39.361544000931644 0 0 0
588 2 2 1.42 12.808763997671832 12.171881467116817 50.62892799581138 0 0 0
591 2 3 -0.72 12.798089159952609 10.360607373188673 51.36859893074143 0 0 0
837 2 7 0.12 12.645879960468777 11.765156609155417 44.18707955689908 0 0 0
720 2 7 0.12 11.565716293048492 8.068817141330562 40.3102433025018 0 0 0
631 2 5 -0.12 8.086078832960965 13.000133031301344 50.68053307299216 0 0 0
780 2 5 -0.12 1.8450039112581054 12.446207110423408 44.511191533119316 0 0 0
783 2 7 0.12 2.546114371084983 12.098591459956888 46.496782992423064 0 0 0
832 2 5 -0.12 13.3470563913525 12.354973728046792 46.11298022249406 0 0 0
842 2 5 -0.12 6.999618547760976 12.887906177726476 39.95548277421268 0 0 0
836 2 7 0.12 12.747176220206443 11.662914523659905 46.721190527807295 0 0 0
846 2 7 0.12 6.483015583483384 12.258844102765195 40.710859417274904 0 0 0
844 2 6 0.18 9.154451183724603 13.836558941205125 39.21695673153393 0 0 0
765 2 3 -0.72 1.7117260541878425 12.49673229895691 41.648614909493816 0 0 0
745 2 2 1.42 2.34800351118832 12.147518107506249 39.849102954665156 0 0 0
800 2 2 1.42 12.834797568819265 12.185790348893562 40.236165810347416 0 0 0
603 2 3 -0.72 10.867659395598066 12.723869881227907 50.72630453289787 0 0 0
546 2 4 0.61 0.713998770979507 13.121360138920105 48.025325029508494 0 0 0
778 2 6 0.18 0.6850114006832331 13.052970395753519 46.51101356161409 0 0 0
536 2 3 -0.72 2.172582065995848 10.186887712643966 50.80994318196309 0 0 0
764 2 4 0.61 0.9376227744533498 13.249634504711373 42.26198886963179 0 0 0
715 2 6 0.18 13.371013854246037 8.189166184289821 39.05443594570798 0 0 0
779 2 5 -0.12 1.6954609991004348 12.35825896749744 45.913877369464416 0 0 0
635 2 7 0.12 8.551019965825216 12.582231503550991 49.83226072740041 0 0 0
531 2 1 -1.78 0.9921645106294741 13.243805349626975 51.62480353326086 0 0 0
804 2 3 -0.72 11.041555912708118 12.990227597266562 40.2355577359108 0 0 0
634 2 7 0.12 6.094806940844887 13.10887535132056 49.62128971415939 0 0 0
784 2 7 0.12 2.6807976369870112 11.95197778484166 44.0129057619327 0 0 0
553 2 3 -0.72 4.036182709035908 12.878168399370951 50.79960495654545 0 0 0
748 2 3 -0.72 2.158829548974949 10.164722889939528 39.47826756107072 0 0 0
507 2 7 0.12 11.857692859860514 8.205403175859642 50.53927168845604 0 0 0
592 2 3 -0.72 13.382195848607529 12.304850139762147 48.787141343752296 0 0 0
537 2 4 0.61 1.0943047396124264 9.708685715792297 51.27256187168035 0 0 0
803 2 3 -0.72 12.761809364991072 10.348136212107898 39.69099948730879 0 0 0
841 2 6 0.18 6.33236305570094 13.641042853675033 38.919822251042035 0 0 0
191 1 7 0.12 11.16595484858972 18.159103659216253 1.6465634488641487 0 0 0
330 1 3 -0.72 1.0179815586451273 16.40196536284965 12.408717014180857 0 0 0
342 1 5 -0.12 1.0537946965823322 18.99688745888908 12.681509358516955 0 0 0
137 1 7 0.12 1.535746952099059 20.71619873767892 2.382707420915455 0 0 0
556 2 6 0.18 0.3010011676257712 20.849766020276924 0.5654006023489956 0 0 1
351 1 7 0.12 1.8318860273361885 18.539464598086404 12.1029673270156 0 0 0
133 1 5 -0.12 1.0168974482025144 20.171636096449596 1.5386784815472059 0 0 0
186 1 5 -0.12 11.892709748855404 20.1581662433381 1.1208988299102556 0 0 0
348 1 7 0.12 1.7219265277195706 20.986063104750052 12.025601902989829 0 0 0
138 1 7 0.12 1.8484778116741603 18.300260718737295 2.1460156211387194 0 0 0
383 1 3 -0.72 11.906745103744 16.371056058253522 12.300678456882585 0 0 0
190 1 7 0.12 10.970821331601035 20.63450482447561 1.6225787415939088 0 0 0
395 1 5 -0.12 11.741463558553647 19.175855213124038 12.324679700524966 0 0 0
187 1 5 -0.12 12.014116458941832 18.767000971975886 1.1884156755465787 0 0 0
173 1 3 -0.72 12.218642923849496 15.94191276489857 1.1269637457694925 0 0 0
134 1 5 -0.12 1.289116801956899 18.82031765326242 1.4136412663347746 0 0 0
343 1 5 -0.12 0.9947472903689356 20.46181212043088 12.654351987991264 0 0 0
396 1 5 -0.12 11.726311508581036 20.607997849057814 12.283710938069008 0 0 0
404 1 7 0.12 10.962378273426248 18.66336741380334 11.762485171052674 0 0 0
401 1 7 0.12 11.01727841993566 21.12659719737994 11.69015433305372 0 0 0
120 1 3 -0.72 1.7045425415775435 16.070945357441023 0.9011104251723938 0 0 0
384 1 4 0.61 12.694629559631363 16.966463108750304 13.079237665723486 0 0 0
609 2 6 0.18 12.851224760015134 20.93547188080066 0.554635796138449 0 0 1
400 1 6 0.18 12.686208941098295 18.445872447831103 13.075951139708943 0 0 0
431 2 4 0.61 0.22621534035938728 22.351924467515893 0.5906906322149834 0 0 1
397 1 6 0.18 12.625630109184907 21.271760295047734 13.146735185499633 0 0 0
1814 5 3 -0.72 0.748431895117893 16.2817518497826 25.106428000705158 1 0 0
60 1 4 0.61 13.207830375884875 22.182784121376876 25.973420082279866 0 0 0
754 2 3 -0.72 1.8311881282051352 16.322539472393096 37.918102362589735 0 0 0
819 2 5 -0.12 13.188927334579052 19.06686742647579 37.980344982636296 0 0 0
828 2 7 0.12 12.776812526921528 18.515203970447022 37.14203812740996 0 0 0
610 2 5 -0.12 12.375370683594769 19.918302505715506 26.738007632130362 0 0 0
848 2 7 0.12 9.028103139814574 15.355454000003496 37.651807809091224 0 0 0
614 2 7 0.12 11.551742075938614 20.36395082310234 27.35511250708778 0 0 0
767 2 5 -0.12 1.4271385440487934 20.530823861339563 37.815203255878785 0 0 0
544 2 3 -0.72 1.715229003172851 16.122833989621803 27.025434105516787 0 0 0
562 2 7 0.12 1.9788696616069041 18.527132921539625 28.337539602485627 0 0 0
825 2 7 0.12 12.14712424750293 21.018057036893044 37.503321252464985 0 0 0
119 1 4 0.61 1.1774226033018294 16.83640862217035 26.137894263850225 0 0 0
766 2 5 -0.12 1.4116819083918952 19.102194564897534 37.682947379957156 0 0 0
820 2 5 -0.12 12.907459601743582 20.41789216989333 38.17278407389591 0 0 0
611 2 5 -0.12 12.700743709623751 18.568256613387426 26.947237402991032 0 0 0
772 2 7 0.12 1.8983545523981784 21.125124697431406 37.0095640586466 0 0 0
775 2 7 0.12 1.8315957322711511 18.630630690303903 36.763426449239375 0 0 0
615 2 7 0.12 12.183512310973274 17.955452462772605 27.680217335628488 0 0 0
561 2 7 0.12 1.5538645342988442 20.682444495738196 28.696577927005716 0 0 0
135 1 6 0.18 0.9711653244125037 18.27832712546251 26.323135251503068 0 0 0
558 2 5 -0.12 1.514975991110346 18.94881840418651 27.464542541732186 0 0 0
557 2 5 -0.12 1.3012742305056024 20.302809139289497 27.695387803076983 0 0 0
771 2 6 0.18 0.8374903533178535 18.396113058388377 38.66410316251752 0 0 0
132 1 6 0.18 0.580902469629403 21.04246771283883 26.81833623089675 0 0 0
755 2 4 0.61 0.984375522211125 16.947879723935294 38.6881957540199 0 0 0
845 2 7 0.12 6.629802033557434 15.196920139710969 37.409907909820404 0 0 0
597 2 3 -0.72 13.196366703268751 16.018534512549383 27.20280735035147 0 0 0
559 2 6 0.18 1.1487064935398448 18.229090233543477 51.664103237271405 0 0 0
2238 6 3 -0.72 0.8182648591865866 16.186891015614904 50.45019295470513 1 0 0
543 2 4 0.61 1.2999560884618586 16.76827779372038 51.47619487765496 0 0 0
768 2 6 0.18 0.7306257105586584 21.137298998375325 38.88550771646342 0 0 0
3 1 2 1.42 1.3429707137341726 24.740052046672957 1.932696967686808 0 0 0
101 1 5 -0.12 7.4457967687525 25.60172112416317 2.0254921767118628 0 0 0
62 1 3 -0.72 10.047755577223812 25.134878714580175 1.3771685482414233 0 0 0
91 1 5 -0.12 12.119153850592216 25.476905044085854 6.233053439939483 0 0 0
1285 4 4 0.61 0.40070674350922075 29.511743708620806 0.931143023433155 0 0 1
227 1 3 -0.72 1.0024156741698236 25.50367074825989 10.52392095048055 0 0 0
73 1 3 -0.72 12.390327421123548 25.275614204774694 3.5433997168573113 0 0 0
23 1 3 -0.72 0.955776633127099 25.12070376428929 3.803284199872578 0 0 0
523 2 6 0.18 5.340098226954341 26.12544015417846 0.9515104863397698 0 0 1
15 1 3 -0.72 3.274945318324765 25.08544514426566 1.654277000413056 0 0 0
104 1 7 0.12 5.412806779627299 25.080443882153357 2.8710877089378144 0 0 0
58 1 2 1.42 12.002212511132203 24.955482210647176 1.6688928730027945 0 0 0
105 1 7 0.12 8.08889527575079 25.18865583097221 2.7720381226469275 0 0 0
484 2 4 0.61 12.730403748319297 22.440843502230457 0.42928448782189266 0 0 1
440 2 4 0.61 3.8425434725764034 26.0224443711482 0.9513466157781508 0 0 1
90 1 5 -0.12 12.139597775053206 25.366637881149664 7.612759444302166 0 0 0
94 1 7 0.12 11.315334581515563 24.811872137726613 8.09401405909767 0 0 0
273 1 3 -0.72 11.88001558584105 23.440728900388994 12.590153928124806 0 0 0
100 1 5 -0.12 6.057076114417644 25.560773720389133 2.0263029783990394 0 0 0
270 1 2 1.42 11.548068881905223 25.343744087069222 12.299997633282118 0 0 0
95 1 7 0.12 11.472155384842521 24.778858443747463 5.650842034075572 0 0 0
425 2 1 -1.78 0.2752089707630297 25.88651915909406 0.8551227388447065 0 0 1
313 1 5 -0.12 6.985409165390353 25.4397383857817 12.598822171453655 0 0 0
285 1 3 -0.72 9.76818301701587 25.81251842217878 12.418928271915922 0 0 0
215 1 2 1.42 1.081791825125757 25.05924169412287 12.4056162999361 0 0 0
274 1 3 -0.72 11.817611807478487 25.607525247308033 10.311379861407145 0 0 0
42 1 7 0.12 1.7201668999163529 24.550262256720064 5.995182874218823 0 0 0
6 1 3 -0.72 0.9799224181679375 22.919829665472513 1.4526730059074024 0 0 0
38 1 5 -0.12 1.0607458262829539 25.306596704483464 6.519678280975023 0 0 0
41 1 7 0.12 1.9598342036252787 24.836609221898943 8.339890072195017 0 0 0
37 1 5 -0.12 1.1225255619548675 25.438555368837566 7.872153254948079 0 0 0
312 1 5 -0.12 5.601421609858771 25.332378520028676 12.702987556375678 0 0 0
218 1 3 -0.72 0.8026509302162905 23.146983206389795 12.583239695501163 0 0 0
61 1 3 -0.72 12.218369840631821 23.031084314864962 1.406951546268603 0 0 0
317 1 7 0.12 7.443731119004546 24.741005613234833 11.902790766151568 0 0 0