LAMMPS data file via write_data, version 29 Sep 2021, timestep = 100513

3392 atoms
7 atom types
4096 bonds
6 bond types
7296 angles
9 angle types
12288 dihedrals
11 dihedral types
1536 impropers
3 improper types

0.07484670863816234 51.983879291362555 xlo xhi
0.11303001078479014 51.95013798921572 ylo yhi
0.11759133959807144 51.93910066040293 zlo zhi
-0.12439365775413115 -0.08505308686619259 -0.22683615946593244 xy xz yz

Masses

1 15.9994
2 65.38
3 15.9994
4 12.0107
5 12.0107
6 12.0107
7 1.0079

Pair Coeffs # buck6d/coul/gauss/long

1 10856 3.2967 308.776 1.60225 0.632701
2 50784 2.62009 5731.71 39.9418 0.341054
3 10856 3.2967 308.776 1.60225 0.632701
4 10304 3.09278 429.894 3.91702 0.608002
5 10304 3.06122 457.18 4.52185 0.60801
6 10304 3.06122 457.18 4.52185 0.608002
7 3680 4 32.805 0.106908 0.977155

Dihedral Coeffs # opls

1 0 0 0 0
2 0 0 0 0
3 0 0 0 0
4 0 0.076 0 0
5 0 3.012 0 0
6 0 1.902 0 0
7 0 4.379 0 0
8 0 6.316 0 0
9 0 5.972 0 0
10 0 0 0 0
11 0 0 0 0

Improper Coeffs # inversion/harmonic

1 13.5247 0
2 1.36686 0
3 63.3072 0

Atoms # full

1159 3 6 0.18 5.173637875422056 0.21166385934833795 12.11297122481264 0 1 0
1162 3 6 0.18 7.947266923612221 0.08926917917552762 12.408315894747304 0 1 0
310 1 5 -0.12 5.8383002536584225 1.112182834861141 13.006926569970068 0 0 0
4 1 2 1.42 1.1287835368849743 0.9334758908624989 24.719520290526766 0 0 0
255 1 7 0.12 1.9597704974266603 1.4134961686227403 18.256367811833552 0 0 0
77 1 5 -0.12 11.716318032424729 5.880225357985793 24.918553031140757 0 0 0
65 1 3 -0.72 11.848736120144466 3.0295505237720857 24.972402402817494 0 0 0
33 1 7 0.12 1.5504671846041957 5.097741781222486 24.395112431683295 0 0 0
286 1 3 -0.72 11.84325535924165 0.29237210799417285 16.017087459530796 0 0 0
12 1 3 -0.72 0.5471822537998614 2.846757270503805 25.07644980055382 0 0 0
247 1 5 -0.12 1.149470215392116 0.49168834696229013 20.113531712671566 0 0 0
11 1 3 -0.72 0.9203809874910625 0.4280142747842026 22.777428196188502 0 0 0
57 1 2 1.42 11.87661019746058 1.0986818333431996 24.67010892788706 0 0 0
78 1 5 -0.12 11.665532851558035 7.2308754101783945 25.20122437686314 0 0 0
246 1 5 -0.12 1.1864085628231074 0.7151099631286663 18.69570616456817 0 0 0
70 1 3 -0.72 12.059521354739603 0.6655989089568788 22.818804923143013 0 0 0
103 1 7 0.12 5.329253990751475 1.0323877159292991 23.95691360477839 0 0 0
239 1 5 -0.12 1.1949145018801028 7.309944855590515 13.729472483572215 0 0 0
106 1 7 0.12 7.686241909904172 1.1495518009047407 23.97446878641308 0 0 0
82 1 6 0.18 12.639938422905184 5.153230018563357 25.768922316756882 0 0 0
297 1 7 0.12 11.632161582056924 5.0566134561285585 14.971436193341384 0 0 0
318 1 7 0.12 7.736144691517644 1.4350108046369667 14.1076071545929 0 0 0
315 1 7 0.12 5.264589825705735 1.7591709747383586 13.693182535542167 0 0 0
214 1 2 1.42 1.3273848347925223 1.0369251110333044 13.893988656958424 0 0 0
98 1 5 -0.12 5.811618052722347 0.5154577534163902 24.833282399041057 0 0 0
24 1 5 -0.12 0.6676864755477546 5.639583982879728 24.79137502499536 0 0 0
244 1 7 0.12 1.9795464859805054 5.362350869316019 14.468218602219547 0 0 0
64 1 3 -0.72 10.003855836442737 0.6705596637804279 25.018651990434492 0 0 0
293 1 5 -0.12 12.242472083561191 5.586982705505623 14.236575592058523 0 0 0
230 1 3 -0.72 1.2474099547641526 0.5278209528986123 15.767478192872165 0 0 0
292 1 5 -0.12 12.42280300986514 6.965950941808935 14.34027867990736 0 0 0
233 1 3 -0.72 3.162028707200624 0.8085013966089991 13.204945956899403 0 0 0
17 1 3 -0.72 3.037130563912845 0.6394739331844724 24.912407897824274 0 0 0
97 1 5 -0.12 7.232827218001484 0.6574550959329514 24.854322754266324 0 0 0
267 1 2 1.42 11.80353130759037 0.9417289479588516 14.172750389511808 0 0 0
226 1 3 -0.72 1.1094849188125675 3.0118400723396284 13.723208202048609 0 0 0
294 1 6 0.18 12.953161982210771 4.771433703176776 13.287325704358203 0 0 0
308 1 7 0.12 10.60035584861529 0.14834152522907368 18.073489904419205 0 0 0
305 1 7 0.12 10.634670631378299 0.5212632157000703 20.60146553647407 0 0 0
240 1 5 -0.12 1.2554709285616268 5.873177670622618 13.809802019222285 0 0 0
86 1 7 0.12 11.191437087149678 5.4821056523463865 24.067325886854178 0 0 0
25 1 5 -0.12 0.6762121607648609 7.0454297810122 24.774595742708005 0 0 0
279 1 3 -0.72 12.349949392334683 2.7919495915243515 14.310851554852695 0 0 0
66 1 4 0.61 12.725991214560175 3.663563657428107 25.619191068339916 0 0 0
283 1 3 -0.72 9.82769304091438 0.5324034260383406 13.7113365139057 0 0 0
252 1 7 0.12 1.7956535660505013 0.9867399913718876 20.809671410990745 0 0 0
309 1 5 -0.12 7.215159397951777 0.9889867921468544 13.250481040602523 0 0 0
300 1 5 -0.12 11.457592758825756 0.09773373408721207 20.060505216350577 0 0 0
225 1 4 0.61 0.1712130608641529 3.6312224107060365 13.124576386118159 0 0 0
902 3 1 -1.78 12.928278203076564 0.02984621710632951 25.86710406295413 0 1 0
278 1 4 0.61 12.94391745011625 3.310310272936942 13.348146817629736 0 0 0
241 1 6 0.18 0.29819037729284514 5.160886893544146 13.12392286788056 0 0 0
1308 4 6 0.18 0.4234610113773593 0.057128766621481905 33.67770603033453 0 1 0
702 2 4 0.61 12.813210500299654 3.6252647821804285 38.91115504258757 0 0 0
2155 6 5 -0.12 0.04999010715158899 1.1770380058393566 32.97806987344694 1 0 0
1500 4 4 0.61 0.5075342825469054 0.07910365190404689 35.18779434876482 0 1 0
718 2 6 0.18 12.525964618226789 5.052827367467176 38.76727210364921 0 0 0
1556 4 4 0.61 9.486852714336164 -0.039388960131373274 38.74394196773072 0 1 0
649 2 4 0.61 0.11604485726506186 3.4010729160425575 38.91835529476947 0 0 0
1538 4 1 -1.78 12.988170008639738 -0.011408329418011703 38.82803290433712 0 1 0
428 2 2 1.42 0.8275888502260649 1.201632712942486 50.511560166673355 0 0 0
710 2 3 -0.72 12.030681756723203 0.6270569182293615 41.89779043197109 0 0 0
436 2 3 -0.72 0.6737534903225807 2.990582112301825 51.12076474660794 0 0 0
742 2 7 0.12 7.819599895872656 1.3241928294747825 40.2646225844188 0 0 0
739 2 7 0.12 5.348622231034319 1.2402398874498464 40.45909028198252 0 0 0
707 2 3 -0.72 10.065313591886458 0.6335273206252068 39.65269211520865 0 0 0
488 2 3 -0.72 9.807995169586635 0.5652836461416351 50.651540379291205 0 0 0
724 2 5 -0.12 12.36252527840977 0.8016516111373472 46.08709763710783 0 0 0
657 2 3 -0.72 3.1799742653060807 0.5142504015834047 39.73472424534482 0 0 0
481 2 2 1.42 11.728950913790095 0.9107325436848054 50.567123759288066 0 0 0
502 2 5 -0.12 11.914690953158702 7.0058103920228465 50.97952755297834 0 0 0
717 2 5 -0.12 11.508838153456947 5.769398005073262 39.43567220323633 0 0 0
654 2 3 -0.72 0.6171204052450584 0.5438628573348678 41.75820262241403 0 0 0
527 2 7 0.12 5.04430009806305 1.3938300006778068 50.0010165570448 0 0 0
522 2 5 -0.12 5.663530577313114 0.6711621229277367 50.5299705864428 0 0 0
494 2 3 -0.72 12.463111874365172 0.6558562117025774 48.77627713950306 0 0 0
671 2 5 -0.12 0.43867167933432194 0.8958008314533779 45.872947332584296 0 0 0
435 2 3 -0.72 0.4178947218944104 0.8550971872882196 48.65444126040006 0 0 0
734 2 5 -0.12 5.843709859743365 0.5713143543345658 39.7560073202387 0 0 0
530 2 7 0.12 7.618983295888804 1.231802693486332 49.85655955757628 0 0 0
638 2 2 1.42 1.2739696228281563 0.8170127947108101 39.875735440357346 0 0 0
670 2 5 -0.12 0.5256964062774485 0.800444890867919 44.48917900655021 0 0 0
501 2 5 -0.12 12.062916740476075 5.665316298326911 50.8081669706315 0 0 0
723 2 5 -0.12 12.318946837221258 0.7338242574484393 44.67430787557722 0 0 0
490 2 4 0.61 12.86002104988677 3.447296671905587 51.5950494684174 0 0 0
716 2 5 -0.12 11.526330192394305 7.146678193310699 39.5026338177282 0 0 0
668 2 7 0.12 1.9681650437180873 5.1187671418144545 39.84923402627104 0 0 0
510 2 7 0.12 11.379679587697767 5.108581915639423 50.12441866703139 0 0 0
679 2 7 0.12 1.229709620931249 1.4881386478977234 43.92057085179266 0 0 0
489 2 3 -0.72 12.079133093421587 2.8445103686694178 50.722255345116515 0 0 0
721 2 7 0.12 10.742917861024548 5.121267459764298 39.97735807555098 0 0 0
691 2 2 1.42 11.861713427415758 1.037821381587084 40.010375771187284 0 0 0
650 2 3 -0.72 0.9108540670386245 2.8003512838254925 39.70266903843356 0 0 0
521 2 5 -0.12 7.012906192056822 0.6463247911126774 50.5636020379148 0 0 0
732 2 7 0.12 11.681142024363687 1.433400742126747 44.1489725750183 0 0 0
703 2 3 -0.72 11.993673838100547 2.9630842741336 39.63549063381451 0 0 0
448 2 5 -0.12 0.6874449963846632 5.760207283430558 51.104838422391225 0 0 0
664 2 5 -0.12 1.0265036260388594 5.622837300569306 39.61132350489048 0 0 0
441 2 3 -0.72 2.7835092796006506 0.5923652819423177 50.52134570977199 0 0 0
733 2 5 -0.12 7.252039526935041 0.6866781000572932 39.604903931944754 0 0 0
729 2 7 0.12 11.921443363569145 1.6116704600091278 46.71308381625763 0 0 0
457 2 7 0.12 1.2231786425826336 5.268023051505887 50.23313422256764 0 0 0
449 2 5 -0.12 0.585897285166208 7.151200201659976 51.00300509493826 0 0 0
663 2 5 -0.12 0.9415102815419801 7.027306423725292 39.75481926098849 0 0 0
676 2 7 0.12 0.9176424700051213 1.6837680225798834 46.39744789508923 0 0 0
506 2 6 0.18 12.84078014279915 4.993249733880102 51.738769787004635 0 0 0
108 1 2 1.42 1.0424960914541854 14.087877398254046 1.2444592278414701 0 0 0
209 1 7 0.12 5.176740091891711 14.224458830130008 1.8692148012353058 0 0 0
204 1 5 -0.12 5.703943018159673 13.656568866356 1.0524516809246829 0 0 0
127 1 3 -0.72 2.9583052468927433 13.85210152348296 0.687320015494652 0 0 0
203 1 5 -0.12 7.112669308643868 13.640477684120494 1.1112455170289857 0 0 0
180 1 3 -0.72 12.310241310796629 14.070607201843904 3.2115130906012723 0 0 0
424 1 7 0.12 7.820075308118335 14.684317890762635 12.029101069168004 0 0 0
329 1 3 -0.72 0.778706414211658 13.938313308161254 10.117350142717129 0 0 0
375 1 2 1.42 12.002782303558426 13.87184096692956 12.015059803028024 0 0 0
212 1 7 0.12 7.6690292645240845 13.998453754923094 1.9887732245402738 0 0 0
382 1 3 -0.72 10.081300541328336 13.641234370201223 12.360515208441978 0 0 0
125 1 4 0.61 0.12905764710164863 13.01944693988763 3.7364033624881117 0 0 0
584 2 1 -1.78 12.973132942121778 13.162419911798862 0.2011743468207461 0 0 1
416 1 5 -0.12 5.987333025988806 13.720581424649664 12.137808908043779 0 0 0
140 1 5 -0.12 1.0584069588921963 13.753087285563545 5.917726605435912 0 0 0
141 1 5 -0.12 1.0865892238752266 13.63526471601612 7.295150060363171 0 0 0
177 1 3 -0.72 9.935781846954043 13.973805398593935 1.0300790478138735 0 0 0
149 1 7 0.12 1.85380883092259 14.271569809963532 5.29623841818098 0 0 0
322 1 2 1.42 1.2800480533373493 14.17844602952747 12.080988517795362 0 0 0
415 1 5 -0.12 7.34281669247709 13.794283587256418 12.326142654339066 0 0 0
124 1 3 -0.72 1.0109637261479532 13.710088733277239 3.104836505388803 0 0 0
335 1 3 -0.72 3.2048127213094517 13.79778267902755 12.171359390650851 0 0 0
146 1 7 0.12 1.8101268979517475 14.184819672358303 7.866251796089088 0 0 0
388 1 3 -0.72 12.408707812351807 13.592465749152602 10.089732664623904 0 0 0
381 1 4 0.61 9.525614565385723 12.636319697936317 12.902796659862483 0 0 0
161 1 2 1.42 11.867519321609418 14.300094353295714 1.3741907719206268 0 0 0
420 1 6 0.18 7.985113409611687 12.646266478098081 12.830913814343312 0 0 0
334 1 4 0.61 3.7491494760931667 12.781183580206926 12.816571425622941 0 0 0
194 1 5 -0.12 12.772370410900262 14.121138851295806 7.321788550996348 0 0 0
193 1 5 -0.12 12.749499093332837 14.125276940083566 5.950010491007692 0 0 0
238 1 6 0.18 0.1629281762758319 7.96810507533838 13.009783161114445 0 0 0
421 1 7 0.12 5.410542930118726 14.573637991187057 11.691951820320536 0 0 0
602 2 4 0.61 9.380669116005018 13.213864137294118 0.17268889076278032 0 0 1
145 1 6 0.18 0.04853752274749795 13.151246538149666 5.198229058821883 0 0 0
417 1 6 0.18 5.201984104214172 12.64059252999309 12.662027546777432 0 0 0
243 1 7 0.12 1.8555237903574877 7.906400646012201 14.340720835423655 0 0 0
409 1 5 -0.12 12.077197810990649 11.999269565696657 18.796540980709697 0 0 0
324 1 3 -0.72 0.8637782773931991 10.033584348360648 13.880447796168921 0 0 0
423 1 7 0.12 7.681175792293445 10.506315316723922 13.653310429982911 0 0 0
109 1 2 1.42 1.2233399163925749 11.786625861176356 24.953605960064937 0 0 0
121 1 3 -0.72 1.3527549569113755 12.756513200724468 23.2397806742855 0 0 0
355 1 5 -0.12 1.496392806399982 12.858401956575308 20.44409076415367 0 0 0
207 1 5 -0.12 7.205266207276644 12.317608140394999 25.003245278062245 0 0 0
179 1 3 -0.72 9.90535343717349 12.634660233403244 24.83177031792275 0 0 0
418 1 5 -0.12 5.87511473628116 11.482664323683636 13.147543729474272 0 0 0
129 1 3 -0.72 3.213032514040547 11.784404901212781 25.219240152781875 0 0 0
164 1 2 1.42 11.694715756151528 11.91067349514795 24.816368171110103 0 0 0
412 1 7 0.12 11.485499272814277 11.376081914862823 20.79836467985672 0 0 0
407 1 6 0.18 12.904148044801415 12.899028845618151 20.866305045916373 0 0 0
167 1 3 -0.72 11.817949336337367 10.073091501520341 25.324360983401334 0 0 0
359 1 7 0.12 2.403293503880091 12.674290293944626 21.063661615559713 0 0 0
413 1 7 0.12 11.5958758130323 11.12175415098382 18.1741741162019 0 0 0
380 1 3 -0.72 10.09196297805059 11.670375515284297 13.47751527718729 0 0 0
296 1 7 0.12 11.992766330480329 7.527192071738388 15.230472444901068 0 0 0
83 1 7 0.12 10.901023183873619 7.877760125965184 24.68666930765373 0 0 0
391 1 3 -0.72 12.054126853731042 12.146245943441052 15.990762052101099 0 0 0
211 1 7 0.12 7.677741659108484 11.792576811342188 24.17852256800824 0 0 0
340 1 4 0.61 0.3797501197019417 12.995928298880097 16.71469843676202 0 0 0
210 1 7 0.12 5.2837992679516255 11.479911380472052 24.44318428483968 0 0 0
321 1 2 1.42 1.2881498368272586 11.806161771074219 14.259667404733108 0 0 0
422 1 7 0.12 5.341441524508638 10.602868117569473 13.461012866051066 0 0 0
333 1 3 -0.72 3.127031536217551 11.992495796350106 13.596274139862606 0 0 0
419 1 5 -0.12 7.281474494453111 11.479072894039962 13.277105734183602 0 0 0
341 1 3 -0.72 1.204819463668397 12.242633340017388 16.158811505943717 0 0 0
122 1 4 0.61 0.29604494775155366 13.023842509622948 22.590857998686364 0 0 0
408 1 5 -0.12 12.069207762526188 11.980505693007602 20.167161482997635 0 0 0
206 1 5 -0.12 5.817086240789054 12.153533353498169 25.097113733395307 0 0 0
168 1 3 -0.72 12.21290222344837 12.05064197397907 23.01783653082724 0 0 0
379 1 3 -0.72 12.357469174048173 9.604967087357002 13.895102698963017 0 0 0
208 1 6 0.18 7.874729297113198 13.107423840322648 25.954788097273557 0 0 0
376 1 2 1.42 11.94980531854668 11.533757657465966 14.078617112738552 0 0 0
112 1 3 -0.72 0.8398643295167718 9.836435972544137 25.10700971667812 0 0 0
169 1 4 0.61 12.92272950369248 12.888441250182405 22.381160167136002 0 0 0
30 1 7 0.12 1.4976428608463261 7.5469678525266 24.297259906009675 0 0 0
410 1 6 0.18 12.891530737928948 12.870874636320485 18.122712756295766 0 0 0
354 1 6 0.18 0.28892391017968644 13.059652651708609 21.040344408748826 0 0 0
356 1 5 -0.12 1.5404246512275173 12.796248323825434 19.02942977258149 0 0 0
178 1 4 0.61 9.369403580851527 13.327608993220885 25.819911220949173 0 0 0
319 1 1 -1.78 0.13343160074325977 13.00309229177479 13.083816623331352 0 0 0
160 1 1 -1.78 12.811989178165117 12.878105987767713 25.977568371749964 0 0 0
360 1 7 0.12 2.47732592763007 12.474086124241197 18.53267034290498 0 0 0
357 1 6 0.18 0.40672440780356184 12.949413890175576 18.25649080742434 0 0 0
390 1 4 0.61 12.9375137396603 12.80976780518912 16.58432437937585 0 0 0
532 2 2 1.42 1.118558094003411 13.786801161471038 27.23040324401138 0 0 0
802 2 4 0.61 12.596716447937734 9.421368210107548 38.91423421445636 0 0 0
564 2 5 -0.12 0.6810420896006569 13.609311986457836 31.91322861588297 0 0 0
570 2 7 0.12 1.1971969107585694 14.3856008663221 33.87809776400541 0 0 0
573 2 7 0.12 1.4564180822317385 14.298000419175642 31.54275716157312 0 0 0
753 2 3 -0.72 0.6263498129713154 13.450597543919931 35.997988821887006 0 0 0
806 2 3 -0.72 9.711130728348115 13.569174470212365 38.29169284234529 0 0 0
626 2 7 0.12 11.807481951165965 14.65744311496245 31.087594015978585 0 0 0
548 2 3 -0.72 0.7653028987866792 13.369140622695399 29.111961143123704 0 0 0
636 2 7 0.12 7.672803748153692 14.463290000340404 27.68057169358868 0 0 0
585 2 2 1.42 11.847745720209671 14.121355511271295 27.13879450983779 0 0 0
617 2 5 -0.12 12.309161604810386 14.000217738435435 31.793014871580233 0 0 0
840 2 5 -0.12 5.4785599281126895 13.811089156352953 38.35517387605278 0 0 0
715 2 6 0.18 12.472956645890262 7.8444033558073825 38.756119765916964 0 0 0
848 2 7 0.12 7.3285107437802885 14.466635665870545 37.51010956431041 0 0 0
604 2 3 -0.72 12.299489438857732 13.760104483602284 29.064479841311552 0 0 0
628 2 5 -0.12 5.725095640755859 13.676566893490815 27.013411142599033 0 0 0
551 2 3 -0.72 2.9592068041224553 13.422698486623204 26.789912676591594 0 0 0
633 2 7 0.12 5.136398705708609 14.277992816420287 27.69931703990808 0 0 0
812 2 3 -0.72 12.029802663813205 13.86548133511048 35.87378535992475 0 0 0
799 2 2 1.42 11.599733786801178 14.07079557031213 37.828656748103754 0 0 0
601 2 3 -0.72 9.959293659159382 14.04081242751734 26.705470617721865 0 0 0
565 2 5 -0.12 0.5610831950034308 13.597440231419816 33.345680013415055 0 0 0
746 2 2 1.42 0.8727973126026551 13.860214161510346 37.826139083607615 0 0 0
759 2 3 -0.72 2.7676705125208745 13.615822201615648 38.3836241424895 0 0 0
796 2 1 -1.78 12.760054321150754 12.878727793326897 38.914510799505855 0 0 0
627 2 5 -0.12 7.169926276213922 13.744392075680867 27.038903864383986 0 0 0
839 2 5 -0.12 6.872485327987907 13.787221816077949 38.266529892046265 0 0 0
618 2 5 -0.12 12.304020494676635 14.064477956918015 33.183338501659335 0 0 0
845 2 7 0.12 4.887732876839935 14.489391245440721 37.72258783179174 0 0 0
79 1 6 0.18 12.591499669080196 7.892830326291743 26.061390706038065 0 0 0
205 1 6 0.18 5.067244891224352 12.849036540718641 26.143664145773382 0 0 0
128 1 4 0.61 3.5918827395982604 12.59887668909967 26.11339970137252 0 0 0
166 1 4 0.61 12.652685052305484 9.401942541073433 26.07227124087645 0 0 0
779 2 5 -0.12 0.23178554860134956 11.829807178243462 46.130029982631676 0 0 0
815 2 3 -0.72 12.184186857271698 12.061248748124557 42.16205461785456 0 0 0
545 2 3 -0.72 0.2778872474333451 11.891976678044562 48.877584909445694 0 0 0
842 2 5 -0.12 5.595599443113381 12.125575193532814 40.07540224783923 0 0 0
533 2 2 1.42 0.9056647628920547 11.79487979691692 50.68149843239531 0 0 0
591 2 3 -0.72 12.150281426126721 9.823123391500312 50.93957691030591 0 0 0
832 2 5 -0.12 12.319246883196405 12.188094022410741 46.15021664372308 0 0 0
836 2 7 0.12 11.635435616140267 11.513752538583178 46.69535838665258 0 0 0
847 2 7 0.12 7.56068403875548 11.4440844559584 40.58721615901008 0 0 0
803 2 3 -0.72 11.966873287585612 9.95320463711151 39.870263991640584 0 0 0
553 2 3 -0.72 2.859309126841046 12.117028931453317 50.86285132027501 0 0 0
588 2 2 1.42 11.764826083744786 11.796301386192345 50.868328794945505 0 0 0
592 2 3 -0.72 12.214530648310461 12.348976143244332 48.955637642996216 0 0 0
536 2 3 -0.72 0.5938494114141468 9.932744524443233 51.10103248009711 0 0 0
843 2 5 -0.12 6.962896248359507 12.09075138036529 40.006073707392936 0 0 0
631 2 5 -0.12 7.172638170257397 12.177570420194925 50.82494271349599 0 0 0
757 2 3 -0.72 2.7504166672537145 12.118366292735466 40.04105492944941 0 0 0
630 2 5 -0.12 5.747038154266909 12.242143338815112 50.75236484992524 0 0 0
783 2 7 0.12 0.9023006014290554 11.178932316260072 46.69879915140887 0 0 0
748 2 3 -0.72 0.5336041023515345 9.76728985175352 39.929823326656965 0 0 0
634 2 7 0.12 5.276234939062692 11.704022260379627 49.8935425710846 0 0 0
635 2 7 0.12 7.793222686660329 11.57599274264498 50.132937900430875 0 0 0
507 2 7 0.12 11.192196568907505 7.47843803838711 50.334956697519516 0 0 0
758 2 4 0.61 3.3816787824038896 12.89272156861433 39.24586980321321 0 0 0
745 2 2 1.42 0.8524912046666755 11.683853674050756 40.29281810162303 0 0 0
800 2 2 1.42 11.714572255402107 11.810388777374895 40.17299585624566 0 0 0
833 2 5 -0.12 12.325207919275812 12.252203661940612 44.74471495249871 0 0 0
780 2 5 -0.12 0.3220453450073073 11.928419082576456 44.75277113804173 0 0 0
837 2 7 0.12 11.570124034808178 11.618052315955406 44.210307708183045 0 0 0
720 2 7 0.12 10.783876027445785 7.675480486111189 40.16469283630149 0 0 0
629 2 6 0.18 4.973966339869688 12.813209588555852 51.79117689950893 0 0 0
846 2 7 0.12 5.161933590211806 11.47448746103085 40.80999593375566 0 0 0
765 2 3 -0.72 0.4349876324027473 11.95656243983647 42.113905257078116 0 0 0
454 2 7 0.12 1.2659654082772898 7.668002401071957 50.26116664697348 0 0 0
603 2 3 -0.72 9.907489778743848 12.295372705343858 51.126656142463254 0 0 0
784 2 7 0.12 1.1367209978116897 11.420901132396578 44.265482256287775 0 0 0
804 2 3 -0.72 9.746327921889451 12.029836020895214 39.85760938819792 0 0 0
844 2 6 0.18 7.609874994772301 12.924219978791761 39.10585485892054 0 0 0
503 2 6 0.18 12.8207120784841 7.695421892663535 51.854177785275056 0 0 0
590 2 4 0.61 12.915364046068971 9.245443569087989 51.76803064761993 0 0 0
841 2 6 0.18 4.84326801587392 12.934091666200777 39.235571617167636 0 0 0
667 2 7 0.12 1.7706573252947773 7.5298059252880405 40.138460850466224 0 0 0
805 2 4 0.61 9.095719243743869 12.802357155924648 39.06361937420766 0 0 0
552 2 4 0.61 3.4751765735012174 12.829843845600335 51.72977672098436 0 0 0
632 2 6 0.18 7.796639928890736 12.865300532051647 51.899935875063726 0 0 0
120 1 3 -0.72 0.4123195467634526 16.046294873835972 1.1741415341943284 0 0 0
138 1 7 0.12 1.2886977424106518 18.271493037848327 1.9750088873353921 0 0 0
401 1 7 0.12 11.381864807063995 20.46243477727167 11.671502495297622 0 0 0
404 1 7 0.12 11.347717481075483 18.097506859536153 11.639172532899257 0 0 0
396 1 5 -0.12 12.148590768606205 19.922672553114232 12.205827231223637 0 0 0
186 1 5 -0.12 12.35458674723953 20.214833146958053 1.0131421692416778 0 0 0
342 1 5 -0.12 0.8771539246455069 18.77849498043149 12.568098715503401 0 0 0
383 1 3 -0.72 12.300226383609356 15.766929629238831 12.28119667113121 0 0 0
330 1 3 -0.72 0.7925482725087617 15.986475040939217 12.653438054909586 0 0 0
395 1 5 -0.12 12.217116597404688 18.51826596624558 12.183035389755988 0 0 0
187 1 5 -0.12 12.351070609014927 18.829484831104175 1.1562227132293494 0 0 0
173 1 3 -0.72 12.387753778038148 16.04438536383618 1.1685004110024793 0 0 0
137 1 7 0.12 1.5032161810979545 20.726249795823257 2.1202005977056078 0 0 0
191 1 7 0.12 11.604121598718228 18.315895892761077 1.675249192038713 0 0 0
348 1 7 0.12 1.6907481998475178 20.713479844771108 12.012788211262805 0 0 0
343 1 5 -0.12 0.8741758488622974 20.165735598808695 12.435818588034138 0 0 0
351 1 7 0.12 1.5984888174593819 18.189291486300718 11.949381138021398 0 0 0
190 1 7 0.12 11.661025386070175 20.767742226136033 1.6902065211791195 0 0 0
134 1 5 -0.12 0.7501806550467072 18.887025159456048 1.2653865635850714 0 0 0
133 1 5 -0.12 0.7574003615214286 20.2364922887781 1.3542902646363844 0 0 0
272 1 4 0.61 12.864831971707497 22.191678140574854 12.954521050987566 0 0 0
202 1 7 0.12 12.320330593732537 15.022585614463175 5.4795450609104135 0 0 0
199 1 7 0.12 12.23227978496411 14.912354728274027 7.912084248973185 0 0 0
819 2 5 -0.12 11.984350992330091 18.763507009013807 37.8139290963651 0 0 0
558 2 5 -0.12 1.0081207853191008 18.451084279407226 26.9924752735911 0 0 0
562 2 7 0.12 1.6200895305896137 17.866858676791136 27.68441229626607 0 0 0
754 2 3 -0.72 0.5185781904516646 15.845161930492718 37.934646185343865 0 0 0
597 2 3 -0.72 12.406343835615068 15.966337960172142 26.827816522637395 0 0 0
807 2 3 -0.72 11.923570179793057 15.918660673604206 38.22137160569489 0 0 0
561 2 7 0.12 1.6561204020222626 20.415795884313482 27.828584434338975 0 0 0
775 2 7 0.12 1.0893417043005609 18.023982320581972 36.921702374304715 0 0 0
614 2 7 0.12 11.609489935623142 20.584512444757305 27.46754721384569 0 0 0
615 2 7 0.12 11.665514366766937 18.17852248912829 27.665317810514978 0 0 0
557 2 5 -0.12 1.042838897235198 19.88669616889545 27.041398889124444 0 0 0
544 2 3 -0.72 0.6806721525082433 15.630552757995 26.934457250098824 0 0 0
828 2 7 0.12 11.273667473457987 18.202477937414308 37.15628172047999 0 0 0
772 2 7 0.12 1.3567735770961753 20.468985064535396 37.15327177892001 0 0 0
825 2 7 0.12 11.59251808735491 20.67802370583345 36.963921822299625 0 0 0
820 2 5 -0.12 12.103762159244095 20.127264106009697 37.795157107069855 0 0 0
767 2 5 -0.12 0.6281168504103805 19.90379812486416 37.7643133024401 0 0 0
610 2 5 -0.12 12.177749926647481 20.040669541786592 26.713623355443694 0 0 0
766 2 5 -0.12 0.46771475370372806 18.562091038830058 37.660786107304794 0 0 0
7 1 4 0.61 0.23417334225775907 22.096422982903245 26.218981207844525 0 0 0
611 2 5 -0.12 12.24389266727617 18.67773873432838 26.794334658867083 0 0 0
119 1 4 0.61 0.03098540895192005 16.26356413835657 26.100144088694325 0 0 0
135 1 6 0.18 0.08925555790960528 17.794080971908517 26.11523043867308 0 0 0
808 2 4 0.61 12.755440539655849 16.527958113131373 38.927339894639815 0 0 0
824 2 6 0.18 12.789909540776792 18.057144793349906 38.738817384047685 0 0 0
132 1 6 0.18 0.15533845039170271 20.585774567204293 26.26691307030736 0 0 0
623 2 7 0.12 11.687792800782093 14.81759894843634 33.69878318431873 0 0 0
3 1 2 1.42 1.0654323387749067 25.025739227427056 1.3514489518691077 0 0 0
526 2 6 0.18 7.940877540564431 25.950724309136923 0.19339962471821215 0 0 1
1126 3 4 0.61 12.680216835321177 29.34428218919102 12.687694828083108 0 0 0
104 1 7 0.12 5.259986233363728 24.43277714151953 1.706042251453955 0 0 0
15 1 3 -0.72 2.9332216462131115 25.500491881662672 1.205608772024894 0 0 0
285 1 3 -0.72 9.955181851088412 25.076525349061995 12.114840348730073 0 0 0
37 1 5 -0.12 0.834370060118459 25.128957892317736 7.400634351272181 0 0 0
274 1 3 -0.72 12.09241075592701 25.07096005856446 9.779923678689178 0 0 0
235 1 3 -0.72 3.0189811436605507 25.126584618801303 12.401987092920622 0 0 0
41 1 7 0.12 1.7138640955674769 24.6490078881326 7.8473787605754755 0 0 0
42 1 7 0.12 1.6425587431924367 24.695429228663915 5.441955952007661 0 0 0
58 1 2 1.42 11.938803294080051 24.80469190551377 1.0816598579184653 0 0 0
312 1 5 -0.12 5.832407892390937 24.81809367360859 12.498436182555409 0 0 0
62 1 3 -0.72 9.935532202571164 24.995633465663598 0.8714865420567681 0 0 0
218 1 3 -0.72 0.8838507442661562 22.860383935098096 12.422038150144067 0 0 0
316 1 7 0.12 5.251758857240648 24.273187984196095 11.705880280538187 0 0 0
317 1 7 0.12 7.749139783510606 24.023213759585996 11.825217748593692 0 0 0
313 1 5 -0.12 7.214265624463209 24.654541294023723 12.577140515026711 0 0 0
6 1 3 -0.72 0.8306574144204784 23.072231820081747 1.2534263743371143 0 0 0
270 1 2 1.42 11.780220362293148 24.67039240569667 11.805071332177642 0 0 0
273 1 3 -0.72 12.017033028560698 22.7109800491706 12.136961306537945 0 0 0
38 1 5 -0.12 0.817851709953151 25.21489363483705 5.9648029371437765 0 0 0
105 1 7 0.12 7.718853529336078 24.257508543715492 1.575014840802953 0 0 0
73 1 3 -0.72 12.296042077211453 25.087161242155798 2.98265056309166 0 0 0
215 1 2 1.42 1.0184722765253214 24.828191373301745 12.066862106820608 0 0 0
23 1 3 -0.72 0.5363189831413782 25.19829472197681 3.2544236853706985 0 0 0
101 1 5 -0.12 7.229217783235276 25.154319946555216 1.117773912116888 0 0 0
227 1 3 -0.72 0.71333386161088 24.944381157155263 10.157456082336594 0 0 0
100 1 5 -0.12 5.826979462537725 25.13707732475399 1.112921794002275 0 0 0
61 1 3 -0.72 12.603176907647834 22.883196696526134 1.1032969278730083 0 0 0
94 1 7 0.12 11.25554455291323 24.485965685542634 7.5445735592687235 0 0 0
90 1 5 -0.12 11.992173967514777 25.122700677669346 7.074980107602795 0 0 0
95 1 7 0.12 11.204001017959763 24.70753299667753 5.15949719717191 0 0 0
91 1 5 -0.12 12.036591175548612 25.19648252290237 5.6703004037129725 0 0 0
431 2 4 0.61 0.051560021648370424 22.47862181800523 0.4599053498647996 0 0 1
440 2 4 0.61 3.574040230589784 26.125539319245863 0.30892792899180294 0 0 1
523 2 6 0.18 5.103267196666235 26.069995986904775 0.32775124107018766 0 0 1
1285 4 4 0.61 0.29773778341033436 29.72835214014743 0.20629778790342665 0 0 1
266 1 1 -1.78 12.910928416484225 25.724795471009497 13.00282636062726 0 0 0
1163 3 7 0.12 5.374597678066148 27.16648368173747 14.993716999908255 0 0 0
1157 3 5 -0.12 7.333412264317554 26.439613021294274 14.17729657997208 0 0 0
234 1 4 0.61 3.611850616642784 25.804584810064867 13.270945704118786 0 0 0
954 3 7 0.12 7.699653736949723 28.304758229208787 25.100115945648795 0 0 0
1078 3 3 -0.72 0.8195593635312055 26.453723416275654 16.111558779041218 0 0 0
912 3 3 -0.72 10.040010854189191 27.104948416570593 25.282981279094642 0 0 0
1134 3 3 -0.72 12.266186405180141 26.75464814469792 15.965683348051485 0 0 0
284 1 4 0.61 9.425204307572164 25.66528579385777 13.175855741657564 0 0 0
1074 3 3 -0.72 0.7056997229190767 28.97756664014835 14.080346987843999 0 0 0
1166 3 7 0.12 7.964394630826668 27.177763398608494 14.71724211073256 0 0 0
852 3 2 1.42 1.0414624667542802 26.84305940265689 25.099954678006654 0 0 0
1127 3 3 -0.72 11.764979984312912 28.877905805005028 13.452498140311375 0 0 0
859 3 3 -0.72 0.6593192794808078 26.61237212416045 23.052934294914856 0 0 0
314 1 6 0.18 7.961894827532871 25.569516897447215 13.286491661464245 0 0 0
1131 3 3 -0.72 10.095024144941313 26.304551170990045 14.017833513163225 0 0 0
905 3 2 1.42 11.980181741812325 26.9639193369667 24.770056242062086 0 0 0
1148 3 5 -0.12 12.459088231949181 27.038727454997527 20.100820324765742 0 0 0
913 3 3 -0.72 12.668133312391184 28.747255292262647 25.090371499512703 0 0 0
1147 3 5 -0.12 12.541639223474156 27.054436021653615 18.697751074916418 0 0 0
1081 3 3 -0.72 3.0058933487321684 26.714448859540013 14.000685021210105 0 0 0
1156 3 7 0.12 11.765978384638696 27.765377548035595 18.216876394029153 0 0 0
945 3 5 -0.12 7.260422510201099 27.384568034624166 25.526999004925834 0 0 0
918 3 3 -0.72 12.309805886554269 26.779743624675955 22.943802675348568 0 0 0
1062 3 2 1.42 1.0977578748045769 27.05869749639448 14.296504312070246 0 0 0
1153 3 7 0.12 11.911908806842394 27.78624491226489 20.61692522698619 0 0 0
951 3 7 0.12 5.263482443652741 28.146961615125367 25.054530901364114 0 0 0