LAMMPS data file via write_data, version 29 Sep 2021, timestep = 501000

11840 atoms
13 atom types
12544 bonds
15 bond types
23808 angles
27 angle types
34944 dihedrals
34 dihedral types
1536 impropers
4 improper types

0.16754880736237965 51.53576319263818 xlo xhi
0.3262067138860729 51.37710728611802 ylo yhi
0.40723492650909776 51.29607907349111 zlo zhi
5.8214254763759445 5.470315569475728 5.183854446023973 xy xz yz

Masses

1 65.38
2 1.0079
3 1.0079
4 12.0107
5 12.0107
6 12.0107
7 12.0107
8 12.0107
9 12.0107
10 12.0107
11 15.9994
12 15.9994
13 15.9994

Pair Coeffs # buck6d/coul/gauss/long

1 50784 2.62009 5731.71 39.9418 0.341054
2 3680 4 32.805 0.106908 0.977155
3 3680 4 32.805 0.106908 0.977155
4 10304 3.06122 457.18 4.52185 0.608002
5 10304 3.06122 457.18 4.52185 0.60801
6 10304 3.06122 457.18 4.52185 0.60801
7 10304 3.09278 429.894 3.91702 0.608002
8 4968 2.94118 280.225 7.91687 0.60801
9 4968 2.94118 280.225 7.91687 0.60801
10 4968 2.94118 280.225 7.91687 0.60801
11 10856 3.2967 308.776 1.60225 0.632701
12 10856 3.2967 308.776 1.60225 0.632728
13 10856 3.2967 308.776 1.60225 0.632701

Dihedral Coeffs # opls

1 0 0 0 0
2 0 0 0 0
3 0 0 0 0
4 0 6.04559 0 0
5 0 5.972 0 0
6 0 0 0 0
7 0 0 0 0
8 0 6.28154 0 0
9 0 5.972 0 0
10 0 5 0 0
11 0 0 0 0
12 0 1.902 0 0
13 0 1.902 0 0
14 0 5.11727 0 0
15 0 3.98217 0 0
16 0 3.66469 0 0
17 4.7638 2.75011 0.191432 0
18 0 3.012 0 0
19 0 0.076 0 0
20 0 0 0.037991 0
21 0 0 0.51445 0
22 0 0 0.343642 0
23 -1.70264 -0.327922 0.811155 0
24 0 0 0.302052 0
25 0 0 -0.052641 0
26 0 0 -0.052641 0
27 -0.370853 -0.236138 1.97012 0
28 0 0 -0.052641 0
29 -0.370853 -0.236138 1.97012 0
30 -0.370853 -0.236138 1.97012 0
31 0 0 0.343076 0
32 0 0 0.870477 0
33 0 0 0.010079 0
34 0.803729 -0.768357 1.29818 0

Improper Coeffs # inversion/harmonic

1 0 0
2 1.18775 0
3 0 0
4 13.5247 0

Atoms # full

2 1 1 1.42 24.662340044106696 1.7896228559766172 2.03312735185688 0 0 0
676 1 8 -0.12 9.705172495102234 9.039872603230696 0.7189100120293297 0 0 0
3265 3 8 -0.12 17.727491930968583 1.4288912851302031 5.526607805057636 0 1 0
491 1 8 -0.12 22.295479103377822 7.8038424036154606 1.6142820157966664 0 0 0
6032 5 6 -0.06326 26.355436205066148 2.335547989801114 6.616628327596736 0 0 0
1182 1 3 0.06 5.565353525929364 12.887101150214376 4.770196333224968 0 0 0
524 1 8 -0.12 25.653291023670917 7.975764779515555 5.782900346125277 0 0 0
237 1 3 0.06 13.87650531068366 4.5089713630837345 7.334524052117704 0 0 0
140 1 10 0.06939 4.326625414959059 4.274165991749017 0.8711468341536033 0 0 0
458 1 3 0.06 24.68713465628103 7.888609715839735 5.141033773032264 0 0 0
1582 2 5 -0.12 5.959498201693519 0.4155510812384841 0.5031610507394634 0 0 1
461 1 3 0.06 21.97350134121138 7.168837251544128 4.442890755527958 0 0 0
609 1 3 0.06 21.405047022516584 12.960226205966109 4.687641348418979 0 0 0
685 1 8 -0.12 13.212831538330965 7.749070930944303 6.170814659313441 0 0 0
244 1 3 0.06 8.542361902585498 4.355331748141102 5.757810747911383 0 0 0
546 1 13 -0.72 27.01384762556868 12.642939980852592 4.332353785664379 0 0 0
586 1 3 0.06 19.921535861107998 6.918973909291982 3.002384680234621 0 0 0
661 1 5 -0.12 15.256068862599253 12.319384083115104 7.099192944930588 0 0 0
208 1 3 0.06 9.293101535413726 1.3825848455660852 5.211910091008893 0 0 0
250 1 3 0.06 10.150372791040784 3.9292681199456814 4.982634106056393 0 0 0
58 1 3 0.06 1.7796906953591058 4.796439087693599 6.515872173942437 0 0 0
383 1 3 0.06 21.282107220340112 7.506187167806077 1.3161710907884943 0 0 0
243 1 3 0.06 15.588402591657196 3.917470988737117 6.8371088661122394 0 0 0
526 1 8 -0.12 6.195813326218169 13.013117341779184 5.6525123045347785 0 0 0
142 1 10 0.06939 26.390385046874115 4.7400326212289565 6.356406550370246 0 0 0
1869 2 3 0.06 22.87958654118108 6.896869389968012 1.9038372268606705 0 0 1
537 1 11 -1.78 2.216442545276319 12.913711956141839 0.8568329243320905 0 0 0
375 1 2 0.12 22.440711795279025 12.834065813129005 3.114668023555024 0 0 0
295 1 6 -0.06326 15.096978665825178 5.510191583300625 1.409292564495363 0 0 0
398 1 3 0.06 26.23600197727877 9.94007574202774 4.993852245625216 0 0 0
443 1 3 0.06 10.444751097973878 9.89656630982457 2.6430372475572157 0 0 0
182 1 13 -0.72 25.306852957349903 1.5717287502874364 3.8665836239786793 0 0 0
29 1 3 0.06 23.82115454910066 3.661264468959678 6.961752770419875 0 0 0
205 1 3 0.06 18.481330715283953 3.4883421813124458 1.6405996358935073 0 0 0
655 1 4 0.18 15.195840367046452 13.309895443996234 6.120384205681816 0 0 0
401 1 3 0.06 6.786899870876466 9.22179059855539 1.336251754104246 0 0 0
437 1 3 0.06 5.99803617930248 9.827562867818292 4.387604584256623 0 0 0
691 1 9 -0.18 11.441224002889006 9.48013993698494 5.36417334849358 0 0 0
625 1 3 0.06 13.620161966418564 9.679197795266886 5.31813212562994 0 0 0
521 1 8 -0.12 8.364137083351562 9.17779533142619 2.9295640313988374 0 0 0
1530 2 3 0.06 4.537108272318861 4.919341449042563 1.749061920840742 0 0 1
94 1 3 0.06 25.374468917408624 7.6427151530577735 6.801377215675936 0 0 0
527 1 8 -0.12 22.137435959929284 8.71309644235824 2.9575865701575643 0 0 0
573 1 3 0.06 19.027848713654333 13.525522907419573 5.572902795168389 0 0 0
619 1 3 0.06 13.014237891834568 8.447755919719716 4.297100678271644 0 0 0
8 1 2 0.12 24.23740983096756 5.983189608359118 0.5128594599424272 0 0 0
583 1 3 0.06 14.224698700185904 7.516130395320129 6.149033305763538 0 0 0
6020 5 4 0.18 26.372436470520775 1.0623068467037378 5.976693652849597 0 0 0
709 1 8 -0.12 12.409864838126992 6.514537963179994 5.889393769888844 0 0 0
640 1 3 0.06 21.431073008570653 8.702579039860034 5.009184630963349 0 0 0
186 1 1 1.42 14.48606249694851 1.0774421579831095 2.176609711859402 0 0 0
364 1 13 -0.72 13.995578026683624 1.4752244888272594 4.060106836727712 0 0 0
201 1 3 0.06 14.87925858093127 4.339982844586776 4.330562568339302 0 0 0
404 1 3 0.06 26.644671639537666 9.843633316918199 6.663679707019135 0 0 0
59 1 3 0.06 20.75501585019591 4.232746252948486 6.514431740952242 0 0 0
207 1 3 0.06 15.023961223766229 5.779764211515522 5.6235434755041025 0 0 0
652 1 4 0.18 14.12433056218463 7.700672414285463 1.6731060829430822 0 0 0
735 1 13 -0.72 17.799458153758664 11.662968941400894 1.8185409500697562 0 0 0
694 1 10 0.06939 10.519795069214545 7.786056651952255 0.8111839884330264 0 0 0
479 1 6 -0.06326 25.389431191452587 7.624630343469247 1.2342537626668504 0 0 0
500 1 8 -0.12 25.825908760988206 9.549656978941904 5.963336516402964 0 0 0
65 1 3 0.06 22.00436873357025 5.407805124407383 6.765024115158927 0 0 0
431 1 3 0.06 5.829188902965701 8.226642408258032 3.6760325794464004 0 0 0
693 1 10 0.06939 20.427132164492654 12.316953848561784 4.568546738135162 0 0 0
267 1 3 0.06 13.171179190003256 6.044729096287038 3.9125231533933413 0 0 0
3283 3 10 0.06939 18.57938820585638 1.556756685563668 4.29474066809364 0 1 0
22 1 3 0.06 1.8247270345643543 4.983647560878314 3.973234213544349 0 0 0
214 1 3 0.06 7.881179625165417 1.9791302469817118 6.020554460244784 0 0 0
316 1 9 -0.18 8.611046496951193 3.5606746120466464 3.6805260626034606 0 0 0
724 1 12 -0.12613 19.794275327045234 12.703324955723726 3.2806544803357314 0 0 0
449 1 3 0.06 21.523448126362062 9.656124093750364 2.873974974147937 0 0 0
160 1 8 -0.12 26.78000427687729 7.1356666337324235 5.185257934829272 0 0 0
220 1 3 0.06 7.75485043211268 2.9157250140620747 3.5273160303956113 0 0 0
184 1 13 -0.72 25.010762673412557 3.488642769918204 1.401788132131892 0 0 0
829 1 3 0.06 22.202413105247768 1.7699571706945978 6.214738246343151 0 0 0
297 1 6 -0.06326 14.063404643665384 1.9472358752895929 6.867699118441086 0 0 0
241 1 3 0.06 17.943535725086992 5.8038469949259355 1.8690221294062053 0 0 0
1012 1 3 0.06 15.483000448700906 8.499572217453153 7.6418458207702376 0 0 0
712 1 8 -0.12 9.468441982186578 9.731883222285552 2.034739690518456 0 0 0
309 1 8 -0.12 14.466934126954595 4.971913681351563 5.2411814679809625 0 0 0
3193 3 3 0.06 19.68667995511504 1.7232129999809205 4.462767622582596 0 1 0
56 1 3 0.06 3.9234570797259556 3.3265911660506537 1.179966828586592 0 0 0
664 1 6 -0.06326 12.811763794501337 7.188518494483028 1.4410846455757635 0 0 0
327 1 10 0.06939 14.47506446127721 4.1221631639975875 6.493181050943155 0 0 0
718 1 3 0.06 18.412422634574266 9.624747146636185 4.777524006950872 0 0 0
345 1 8 -0.12 13.05284361958456 5.472126456323454 4.842505347085673 0 0 0
346 1 3 0.06 8.486663335360166 4.525445989925499 3.2293871787411095 0 0 0
700 1 8 -0.12 18.943989138266215 7.612731096742715 4.961084908958949 0 0 0
358 1 12 -0.12613 13.863120758297184 2.994646303943057 6.059575597523657 0 0 0
455 1 3 0.06 8.669886478480757 9.462898377799025 3.9994395875943134 0 0 0
124 1 8 -0.12 26.490582619671756 5.598854518281141 5.138171883556085 0 0 0
41 1 3 0.06 23.1607717001114 4.397290739344049 4.723211280774143 0 0 0
52 1 3 0.06 25.600322957371738 5.058470995810105 7.111302406444852 0 0 0
374 1 1 1.42 26.484776245506055 12.29473296459741 2.527763696329429 0 0 0
725 1 12 -0.12613 11.765969608234794 8.048446715781754 1.4835939791121466 0 0 0
703 1 8 -0.12 12.869243932994504 8.881173839885296 5.212308775838275 0 0 0
3008 3 3 0.06 5.6743380676408695 1.3301763210819542 4.483454413992476 0 1 0
328 1 8 -0.12 9.102660542748318 3.5783416975827813 5.126934307197138 0 0 0
3157 3 3 0.06 16.687881558489128 1.6624706323562906 5.228823644015373 0 1 0
6018 5 4 0.18 26.263060441747385 5.344893417842707 0.7445195917271705 0 0 0
161 1 3 0.06 21.53438112871258 5.040536148570151 4.422302896208926 0 0 0
952 1 3 0.06 16.133333924890998 6.1810491377561965 7.326506932726108 0 0 0
595 1 3 0.06 10.617932132684821 8.77506099289681 5.3832854476876495 0 0 0
113 1 7 0.61 22.244524162834367 0.8103418858513589 0.8112811292293094 0 0 0
646 1 3 0.06 8.404062769478594 8.073790394111928 2.829491005264076 0 0 0
634 1 3 0.06 9.12273696060247 10.734285760763926 1.72534449197695 0 0 0
740 1 13 -0.72 15.46285077232799 11.879419284887684 4.260911480722148 0 0 0
35 1 3 0.06 21.850114387843686 3.2928246481328527 4.499716626005492 0 0 0
95 1 4 0.18 20.75413298942759 0.7544955927495696 0.8178054333628372 0 0 0
413 1 3 0.06 3.5712789525732447 9.637268180066213 3.5402113506894928 0 0 0
567 1 3 0.06 18.74938629114495 11.807559950720588 5.675763825960711 0 0 0
5 1 2 0.12 20.94734358173691 1.1902251007233402 2.984496161713543 0 0 0
6387 5 4 0.18 26.712757154546832 8.028843195667452 1.609115238957454 0 0 0
143 1 8 -0.12 21.85803805168138 4.388254618520914 6.429198083928327 0 0 0
604 1 3 0.06 10.242646256332405 6.835873781490801 1.4486175161837338 0 0 0
673 1 7 0.61 14.99135450814528 12.97074243423428 4.684374514057359 0 0 0
730 1 13 -0.72 15.417836689438381 9.574335913788904 1.9182852158207215 0 0 0
193 1 2 0.12 11.649009940725568 5.4327704969843245 1.0635443649259764 0 0 0
283 1 4 0.18 13.781324550814531 4.914214050421141 1.2763288774601311 0 0 0
706 1 8 -0.12 21.4252623842654 8.038075414842176 4.097330650366535 0 0 0
663 1 6 -0.06326 20.539434964215733 12.570949916081634 2.186809600088756 0 0 0
360 1 13 -0.72 12.453177623706967 3.0229400990496478 0.642244992001989 0 0 0
407 1 3 0.06 4.399247689494359 10.88269746339888 2.6251194484021267 0 0 0
116 1 7 0.61 0.8889657574018696 3.7393696265467518 0.8674236861667167 0 0 0
434 1 3 0.06 23.64886480696746 10.091420116070923 5.54178140948067 0 0 0
721 1 3 0.06 11.157323635933617 10.271101304884308 4.664152051468758 0 0 0
6093 5 12 -0.12613 26.02962202455831 3.4369918618458706 5.832897641257704 0 0 0
226 1 3 0.06 9.367032957215747 3.044089286135484 3.0452290178995414 0 0 0
440 1 3 0.06 24.497330824646042 11.305712928454584 6.385511582990636 0 0 0
682 1 8 -0.12 19.959101137617466 7.727402937241761 3.737621492415662 0 0 0
325 1 10 0.06939 17.474530901969963 5.172030431117662 0.9630221006391891 0 0 0
395 1 3 0.06 7.047602201191765 10.715165279075652 2.155715623894074 0 0 0
533 1 3 0.06 4.156062724421156 9.140908159530287 1.9904234980308595 0 0 0
1260 1 8 -0.12 6.668041330173891 11.592436179647278 6.215362363525507 0 0 0
497 1 8 -0.12 6.897747675596477 9.629022751213089 2.3478043570780684 0 0 0
518 1 8 -0.12 24.365324611491058 10.231429949842273 6.371459963846855 0 0 0
104 1 5 -0.12 25.23812025132975 6.295274115993879 0.766242836546775 0 0 0
149 1 8 -0.12 22.29661417730146 1.9997950053616935 7.23633310379871 0 0 0
131 1 9 -0.18 22.108542502734245 4.2891159306452105 4.930249317615477 0 0 0
239 1 3 0.06 18.184705463972847 2.404946326319743 3.6709329508061193 0 0 0
515 1 8 -0.12 5.789443636544365 9.294243142106604 3.3871402574619887 0 0 0
722 1 11 -1.78 14.955291348731881 12.675138891651667 1.0533123144931875 0 0 0
101 1 5 -0.12 20.2902255538438 0.8092333956194016 2.1259951881770034 0 0 0
603 1 3 0.06 20.796936664282097 11.29100209550644 4.526851137622688 0 0 0
509 1 10 0.06939 23.207358786235904 8.365773030568562 0.548499782772922 0 0 0
174 1 13 -0.72 22.780245724878483 1.4356034323836648 1.7386692943253355 0 0 0
203 1 3 0.06 17.967070933702164 2.2472739969801494 6.315318565944854 0 0 0
16 1 3 0.06 25.582707037043978 5.412322821988795 4.549466358076927 0 0 0
112 1 6 -0.06326 0.9621190203518569 2.1246473195202196 6.423420396301666 0 0 0
1367 1 3 0.06 20.74727206826321 13.457938437607389 7.243181340657206 0 0 0
675 1 8 -0.12 19.550045217127373 12.623723634790727 5.726884620610475 0 0 0
558 1 1 1.42 15.922000475681356 11.456588081372201 2.318114327699857 0 0 0
1194 1 3 0.06 5.87291805921567 10.832412327796538 6.219022159992745 0 0 0
1554 2 3 0.06 20.421090992934452 3.354158792394098 0.5609305010118519 0 0 1
565 1 2 0.12 15.317797114648608 11.23520925629877 6.797756736011399 0 0 0
125 1 8 -0.12 22.753777658026877 3.4227621759071627 7.320232259908279 0 0 0
628 1 3 0.06 23.187735646070347 8.912406912107908 3.3058291797435553 0 0 0
688 1 9 -0.18 18.727347470217705 8.965618742723635 5.563613219785134 0 0 0
289 1 5 -0.12 12.70752933154982 5.787980511649436 1.2103340139630479 0 0 0
334 1 8 -0.12 9.670766961427532 2.0763490571568184 7.209834723597434 0 0 0
631 1 3 0.06 12.334835011480589 4.6157519349373395 4.7378279003551285 0 0 0
580 1 3 0.06 19.48494061380736 8.510230422312736 3.0912375101123875 0 0 0
1663 2 13 -0.72 3.361931696963726 0.44373526522330076 0.45381173976710676 0 0 1
279 1 3 0.06 12.324918274620098 5.897346185037469 6.745850443125875 0 0 0
598 1 3 0.06 17.8703090386046 8.914551565616334 6.2589664798557285 0 0 0
503 1 9 -0.18 4.397197663458698 9.780537616743329 2.8585248600845357 0 0 0
6038 5 7 0.61 26.078290389304694 0.8214296895857645 4.542830310858979 0 0 0
466 1 4 0.18 7.250448050959358 13.125232494228156 0.8630417629930738 0 0 0
310 1 8 -0.12 8.948044276111874 2.215393887745705 5.84204580505623 0 0 0
6002 5 3 0.06 1.5628335002301155 7.071704457398411 5.367594355497839 1 0 0
616 1 3 0.06 18.034227521134248 7.1107217841904875 4.555868950598059 0 0 0
484 1 7 0.61 24.099967676850355 12.981213276930339 1.0745711665144813 0 0 0
622 1 3 0.06 19.323723498669647 6.9313198026539995 5.797289423471299 0 0 0
589 1 3 0.06 12.98902183087031 8.06591041634935 7.1752667960993435 0 0 0
658 1 5 -0.12 15.262484705754101 6.923009228528465 1.6344094204818447 0 0 0
6087 5 11 -1.78 25.663563439792355 0.4774619443660316 1.01380742977123 0 0 0
460 1 3 0.06 7.54141033536231 11.222170570570537 5.707730713755568 0 0 0
363 1 13 -0.72 14.603043245409696 2.756240746494635 1.2610755041890656 0 0 0
592 1 3 0.06 19.57430465206765 9.532666456658518 5.927703231712412 0 0 0
601 1 3 0.06 11.490652266671164 10.027336564112527 6.3478800733731635 0 0 0
643 1 3 0.06 11.394396929760852 6.676196157488517 5.561312270742512 0 0 0
540 1 12 -0.12613 24.408162868472353 8.618275925587646 1.1909478131064333 0 0 0
98 1 4 0.18 1.1772358083182952 5.190105738047125 0.7218848769689897 0 0 0
711 1 8 -0.12 20.14727020242693 12.543733850002768 7.126265806640373 0 0 0
670 1 7 0.61 14.307938832466093 9.17681386558235 1.4827968747588307 0 0 0
669 1 7 0.61 18.3417756078145 12.340422112557821 0.8772972540162585 0 0 0
6036 5 7 0.61 26.009915310609966 3.8823866392810875 0.6272913273231817 0 0 0
551 1 13 -0.72 26.551336720706736 10.276238646642188 2.4796123513259594 0 0 0
651 1 4 0.18 19.863582851428028 12.435396447023026 0.9531059091511471 0 0 0
356 1 12 -0.12613 16.18397858903483 4.6790541188870876 1.3095139513213598 0 0 0
20 1 3 0.06 6.20551289328373 3.170248285430685 1.2044641717671782 0 0 0
1739 2 3 0.06 6.979473094716136 5.747530331116702 0.6720643958797283 0 0 1
418 1 3 0.06 8.348820781704944 12.526226028884102 4.250390730425111 0 0 0
2213 2 13 -0.72 13.35078021376105 9.90199009342253 0.9726457248086395 0 0 1
562 1 2 0.12 16.178560535597654 7.522338959130073 1.8438712725409219 0 0 0
1845 2 13 -0.72 10.28142347028286 0.715465838388099 0.6154750584566548 0 0 1
1772 2 6 -0.06326 7.402207614137883 0.4620745195376369 0.5011361619778747 0 0 1
486 1 7 0.61 1.8208786460176227 9.44005060607057 0.44936864209986177 0 0 0
265 1 3 0.06 20.223963081316093 5.10278378270426 0.6941667268636844 0 0 0
633 1 3 0.06 20.800034610721184 11.714083034423675 7.169099506692973 0 0 0
448 1 3 0.06 5.575168723286795 13.451635877239434 6.481389877600664 0 0 0
483 1 7 0.61 5.746605921175208 12.903930646854604 1.0029831312034356 0 0 0
553 1 13 -0.72 24.565096045800182 12.669370259344799 2.2306651419082115 0 0 0
300 1 7 0.61 13.54862490763955 3.4951014922452766 1.0748401455988543 0 0 0
268 1 3 0.06 10.734198955843501 2.3678465821188905 6.95953767960973 0 0 0
471 1 5 -0.12 21.912462283471843 12.712230165066089 2.187484007753579 0 0 0
465 1 4 0.18 22.61779917331548 12.633963763509756 0.971334709364652 0 0 0
307 1 8 -0.12 18.39798899841365 3.965548084349634 0.6938986684767456 0 0 0
1751 2 3 0.06 8.433546459139514 3.987496650391971 0.419811739443528 0 0 1
1272 1 3 0.06 6.972935064551916 11.684341777627427 10.56619259659896 0 0 0
850 1 6 -0.06326 3.62494976157151 7.653728393180663 13.643433165007595 0 0 0
1152 1 3 0.06 5.439105927826021 12.569462150490775 10.800476322605718 0 0 0
3980 3 4 0.18 9.94902569498778 2.170183406098999 13.772719571411429 0 1 0
1000 1 3 0.06 16.5275567767398 9.161702124682396 9.607629477726308 0 0 0
1476 1 13 -0.72 14.785747865133006 11.914073373679141 14.811221350705058 0 0 0
1398 1 5 -0.12 16.49765923467733 8.886034448120121 13.513730139560325 0 0 0
1017 1 3 0.06 22.18181017866407 4.638843700245204 10.963714516723448 0 0 0
1308 1 3 0.06 11.089277589634454 10.773588167104933 11.637818684001735 0 0 0
766 1 3 0.06 22.110124423605402 7.358923675665312 12.310687144412555 0 0 0
772 1 3 0.06 21.559907435514205 7.366719659510026 10.716166500324785 0 0 0
844 1 5 -0.12 27.15541208687052 7.405803852315183 13.361512710304044 0 0 0
875 1 9 -0.18 4.260892515021453 4.873726774983256 10.237859899257264 0 0 0
4052 3 11 -1.78 15.165925677760248 1.7045222930825752 13.832437190894213 0 1 0
925 1 13 -0.72 26.8525591042286 2.4495263678607215 10.71773266394254 0 0 0
1282 1 12 -0.12613 2.337170522387266 11.467066792632153 8.883135960223427 0 0 0
1319 1 3 0.06 19.527869897483153 13.264659514290926 10.115262146698239 0 0 0
1191 1 3 0.06 2.8643755977048793 8.347317267050759 11.189665335810746 0 0 0
1140 1 3 0.06 7.660239222486096 10.81246023445968 8.054630200282821 0 0 0
1129 1 3 0.06 24.391000419183488 11.696909074538256 14.286548713264514 0 0 0
802 1 3 0.06 24.34372904912511 6.39687273171751 11.757127797204046 0 0 0
785 1 3 0.06 4.817473628396465 4.40279138049752 9.42595237489465 0 0 0
1030 1 5 -0.12 14.536084416146037 1.9675030291484745 8.173810370177913 0 0 0
1047 1 8 -0.12 19.69230545543899 5.812264664455092 13.160859463420026 0 0 0
6845 5 13 -0.72 1.4159513444747835 2.682763268933142 10.419077207432569 1 0 0
3998 3 7 0.61 11.446091358225699 2.043775395053182 13.840767921072569 0 1 0
839 1 4 0.18 1.4521862140395894 1.1719485601562383 8.631101227387145 0 0 0
1054 1 8 -0.12 16.395218056245934 6.66771849092753 8.288689303710413 0 0 0
803 1 3 0.06 2.5527316594678195 6.184164954194124 10.554202099960547 0 0 0
911 1 12 -0.12613 4.855991212398575 7.051493680720876 13.240239465254596 0 0 0
832 1 3 0.06 8.553892617474713 4.409216090160667 12.616055099163983 0 0 0
1467 1 12 -0.12613 15.408803017392529 11.503480085768253 9.241159252194949 0 0 0
1060 1 9 -0.18 17.65230040338189 4.670445786711446 9.285621821497843 0 0 0
1157 1 3 0.06 22.463608369017678 13.347856882737338 10.661291444104199 0 0 0
1083 1 8 -0.12 20.267181492494224 5.244458829034696 11.846139956079426 0 0 0
767 1 3 0.06 2.7072481960787083 7.312991909978927 8.086324951254724 0 0 0
1452 1 8 -0.12 10.016364887602094 9.875838051093728 13.30333375582629 0 0 0
1090 1 3 0.06 17.867076721376986 4.1415412146358594 10.184626815780168 0 0 0
1346 1 3 0.06 14.04761166027423 10.530098900601404 8.136939232685684 0 0 0
1099 1 13 -0.72 12.067994346380345 2.7890839635811826 14.687701908608263 0 0 0
1352 1 3 0.06 13.369114780881894 11.267321461835225 9.673385099796883 0 0 0
1141 1 3 0.06 7.213795473607412 10.230193295696168 13.576700103643118 0 0 0
3992 3 6 -0.06326 9.234740937757255 1.7668778727163412 12.59948435392728 0 1 0
1236 1 8 -0.12 7.140934625086293 11.72187763537354 7.763700426811367 0 0 0
988 1 3 0.06 16.612887994564478 6.298881940657135 10.330608701300687 0 0 0
868 1 8 -0.12 22.266946205137856 6.815835451458613 11.356587550584475 0 0 0
904 1 3 0.06 23.759943013874658 7.044805206576296 8.757101346266039 0 0 0
874 1 9 -0.18 24.180641414983764 6.575980023841318 9.624713767439344 0 0 0
741 1 1 1.42 3.2068443161470914 3.1009365962075175 14.479873934783628 0 0 0
1434 1 10 0.06939 12.530859997520716 10.737600919386367 13.302832809673596 0 0 0
1404 1 6 -0.06326 14.175091306673071 9.095924964947562 13.94446636350015 0 0 0
886 1 8 -0.12 23.729391436273286 6.977733761317971 10.990693253640467 0 0 0
23 1 3 0.06 22.750143052897663 3.7974674915389133 8.355567327662136 0 0 0
892 1 8 -0.12 21.782025560705115 5.404085158358126 11.62762691579367 0 0 0
915 1 13 -0.72 27.168837325702782 4.691436020336489 12.835904480485324 0 0 0
743 1 1 1.42 26.67211068531055 2.8108547576000134 12.665722257365589 0 0 0
898 1 8 -0.12 7.981144237120339 6.443966243231251 12.936032594441189 0 0 0
1388 1 3 0.06 14.327860163951604 7.361543873347196 8.45753099936669 0 0 0
1111 1 1 1.42 27.801577905231817 13.488635381626848 12.870077583515457 0 0 0
787 1 3 0.06 21.81185353627004 2.1928529603590556 10.069260099773864 0 0 0
854 1 7 0.61 24.254736608417883 1.730504454145798 13.949476533453725 0 0 0
1127 1 3 0.06 23.96175471312953 13.435520192223143 8.455439869186916 0 0 0
1176 1 3 0.06 5.2596926675638915 12.577492685683277 8.138769992063207 0 0 0
918 1 13 -0.72 3.3893905256951466 4.882288608912049 13.624902135124136 0 0 0
905 1 3 0.06 3.7094017384726783 4.149071566866267 10.857140183353613 0 0 0
862 1 8 -0.12 7.00164472879297 5.871028140335031 13.963640685260337 0 0 0
920 1 13 -0.72 24.810305472846956 2.3870654172339214 13.013121910150609 0 0 0
929 1 1 1.42 16.198266671738686 2.7301372109634054 12.515012921437346 0 0 0
1280 1 12 -0.12613 25.97211181327853 9.408207836827483 13.92934444028661 0 0 0
808 1 3 0.06 24.037098295456648 8.026774242803242 11.137719233988514 0 0 0
6765 5 5 -0.12 1.2841441483441076 2.326486988772706 7.782115085383152 1 0 0
907 1 11 -1.78 2.071146626175006 1.9949272752495353 13.450882486971427 0 0 0
969 1 3 0.06 11.908072981174065 5.001725823004892 12.520139301901919 0 0 0
1227 1 7 0.61 3.0577673292937035 13.900972027447597 10.128217351435469 0 0 0
951 1 3 0.06 9.961791978961637 6.652903493562131 10.863748068579952 0 0 0
957 1 3 0.06 8.80275181147324 5.48323705006703 10.315947516005679 0 0 0
1439 1 8 -0.12 19.37976923040282 11.04734067697153 10.399070181427241 0 0 0
963 1 3 0.06 12.598176299091843 5.785491979966247 11.122144373415528 0 0 0
1285 1 13 -0.72 3.6345152182950615 11.571298544475923 14.769632570662406 0 0 0
809 1 3 0.06 2.3870938859370234 5.168832525146174 9.073794739977584 0 0 0
1131 1 3 0.06 27.131229343659353 9.12857461585505 10.550413359616215 0 0 0
1183 1 3 0.06 9.29837440139974 9.351714550719215 12.687428855456254 0 0 0
845 1 5 -0.12 26.700929503475248 2.3595598908194404 7.964083422396922 0 0 0
1269 1 8 -0.12 3.058480977531441 8.971496713377487 10.32921291372615 0 0 0
987 1 3 0.06 10.93349181091089 4.671024749683272 9.726564938967446 0 0 0
1355 1 3 0.06 18.226666796009166 11.009922477880263 10.242099447414677 0 0 0
993 1 3 0.06 10.468787629480804 3.6035057988675456 11.14779819364301 0 0 0
1406 1 6 -0.06326 15.315209242898492 12.628412805680004 8.444375264331976 0 0 0
1290 1 13 -0.72 5.932516542796476 14.081531052898454 14.53663903416274 0 0 0
749 1 2 0.12 26.745339686733846 3.3027689344587263 8.446299116234691 0 0 0
1014 1 3 0.06 9.341934325616808 2.847751384665914 7.891236690692415 0 0 0
880 1 10 0.06939 5.886601887945519 6.843228083278543 14.260185153409616 0 0 0
1011 1 3 0.06 9.950441070147859 5.179218338408969 13.194564756720826 0 0 0
760 1 3 0.06 7.582167503664618 5.675872905797361 14.84614224305334 0 0 0
1288 1 13 -0.72 27.643162476060162 11.609107743881644 13.28924576041412 0 0 0
1316 1 3 0.06 13.41927170471133 8.9723173740009 10.087069133411612 0 0 0
754 1 3 0.06 6.613758712694823 4.8862605062335716 13.73542415136708 0 0 0
1023 1 4 0.18 15.214538326781504 6.893963515865607 13.401504131377237 0 0 0
1392 1 4 0.18 15.414228660425607 9.704427211193781 13.8567103932718 0 0 0
838 1 4 0.18 2.377616946696035 7.058566006257562 13.415357694721806 0 0 0
1267 1 8 -0.12 23.11814486461762 9.997501149398689 14.831046862650908 0 0 0
1195 1 3 0.06 9.085434898718706 11.807430733673996 13.049320164129773 0 0 0
1035 1 6 -0.06326 16.442816986312703 7.563725275900782 13.254174468720944 0 0 0
1302 1 2 0.12 17.58250410410103 9.303363317706197 13.615235028648776 0 0 0
1041 1 7 0.61 15.248341648110928 5.402761652748333 13.517468140582054 0 0 0
1436 1 10 0.06939 14.226758783555361 10.748614517872982 9.217699314893627 0 0 0
869 1 8 -0.12 3.539358303637485 6.994942912274077 8.736824118883401 0 0 0
1247 1 10 0.06939 23.52140467504084 13.673639110119796 10.52598032602572 0 0 0
1053 1 8 -0.12 9.571285145549657 5.644594488302499 11.088901196165446 0 0 0
945 1 3 0.06 20.491613201012388 5.8154796813891325 13.907715612976844 0 0 0
1059 1 9 -0.18 12.059180356105404 4.883071467325757 11.474781571178964 0 0 0
1021 1 4 0.18 19.976341138236748 1.714430991656856 13.768056355350163 0 0 0
855 1 7 0.61 2.313472506399025 5.5437723108816 13.238537946816008 0 0 0
1386 1 3 0.06 9.730324073461851 11.565968199908806 14.606313857448306 0 0 0
1071 1 8 -0.12 10.700452303573902 4.643440066486452 10.83330532032929 0 0 0
1287 1 13 -0.72 25.925844910673085 13.902623635397141 12.933516542642698 0 0 0
1077 1 8 -0.12 9.007908446830223 5.37351992546232 12.51117542645078 0 0 0
858 1 7 0.61 1.7730238466396024 1.5316126601507358 10.059820707946903 0 0 0
994 1 3 0.06 15.598471233661495 5.06819748332862 9.57305734652024 0 0 0
1394 1 4 0.18 15.52276858391648 13.927012141976846 8.793681059206923 0 0 0
536 1 3 0.06 24.49123484987742 9.957739361767183 8.665393298036053 0 0 0
1416 1 8 -0.12 11.282450613270704 10.048572044516625 12.465759238392447 0 0 0
1096 1 12 -0.12613 17.561292582917613 6.967473886125666 12.802605389502567 0 0 0
820 1 3 0.06 7.564203687695087 6.864981427634847 11.963959521388682 0 0 0
1106 1 13 -0.72 16.011735678941754 4.741623578359103 12.720041694773098 0 0 0
970 1 3 0.06 17.556637247061577 3.971480667011364 8.49098607824339 0 0 0
1310 1 3 0.06 14.515271142024222 9.9035934415609 11.181449355743679 0 0 0
1108 1 13 -0.72 18.04928964927697 2.0150907241445317 12.596051364534167 0 0 0
1261 1 8 -0.12 9.179199331870421 11.080745729748543 13.829179825231401 0 0 0
1113 1 1 1.42 4.093012285725919 13.407134540853747 14.741783793700964 0 0 0
6735 5 3 0.06 27.498722455704073 8.3103946652886 8.289593160185056 0 0 0
1457 1 3 0.06 21.06814204194618 9.745222589099193 9.829220831302315 0 0 0
778 1 3 0.06 25.24696958246345 6.9005286409726985 9.570927851314007 0 0 0
779 1 3 0.06 4.982148702715676 5.444508549434375 10.915223074735719 0 0 0
1379 1 3 0.06 18.485535659683745 13.318144409798506 8.19760171182546 0 0 0
827 1 3 0.06 4.921411321895809 7.914312999998988 10.165938553853573 0 0 0
1072 1 8 -0.12 16.507547747175124 5.669344957087212 9.439944977346254 0 0 0
1134 1 3 0.06 8.004997682852661 12.471411970699041 7.707310779857957 0 0 0
1163 1 3 0.06 24.124055481198393 12.76922299200292 10.87594985357688 0 0 0
645 1 3 0.06 18.388046837254517 11.60167921867726 8.097203972753366 0 0 0
7087 5 3 0.06 27.452045844579118 11.383457146366439 10.613780708047788 0 0 0
751 1 3 0.06 24.11978744863435 2.123349273442716 9.357475380289667 0 0 0
1376 1 3 0.06 15.671783649136657 7.859827889436773 10.639588940941064 0 0 0
814 1 3 0.06 19.903243464605474 5.600449586188108 10.941108913673574 0 0 0
981 1 3 0.06 18.924992774360824 7.60975886835102 14.19662732870815 0 0 0
1331 1 3 0.06 19.592101487235894 9.057868529316139 10.57254591233785 0 0 0
784 1 3 0.06 24.185276848667776 5.491457736647758 9.440190164841626 0 0 0
975 1 3 0.06 19.48452234720187 7.874055679553986 12.515098809022113 0 0 0
1320 1 3 0.06 19.87785788980217 10.08151539354649 14.182292084743242 0 0 0
1101 1 13 -0.72 15.644326092910077 2.0273618809121334 10.735923348112545 0 0 0
893 1 8 -0.12 4.139734963627143 8.240791574399552 9.463272392390259 0 0 0
917 1 13 -0.72 5.049246148488538 2.351190261069813 14.748526313056715 0 0 0
1380 1 3 0.06 21.625864673132522 11.138627969749804 13.641825951635095 0 0 0
1454 1 8 -0.12 15.551179082744927 8.536795063148256 9.740713795323297 0 0 0
1478 1 13 -0.72 13.015712205755717 14.286773507630063 14.847963006685502 0 0 0
887 1 8 -0.12 3.069398859277645 5.841559665140829 9.71104325391322 0 0 0
1146 1 3 0.06 6.924760450890704 13.343812876904181 10.14212120299516 0 0 0
1427 1 9 -0.18 19.975851001365445 9.76359483043423 9.829197362280556 0 0 0
999 1 3 0.06 8.519725095589882 7.2971386276792565 13.257288027664785 0 0 0
1411 1 7 0.61 15.571207507137403 11.175089562512879 14.0290889320719 0 0 0
1361 1 3 0.06 19.53565439179087 11.228375818223931 11.512296931901592 0 0 0
1029 1 5 -0.12 14.073749148338585 7.657752746288555 13.796192347974639 0 0 0
1135 1 3 0.06 7.303536602756533 11.778354909253075 14.408740238709456 0 0 0
826 1 3 0.06 22.191714801311516 5.056617895428333 12.552855621806213 0 0 0