LAMMPS data file via write_data, version 29 Sep 2021, timestep = 1001000

11840 atoms
13 atom types
12544 bonds
15 bond types
23808 angles
27 angle types
34944 dihedrals
34 dihedral types
1536 impropers
4 improper types

0.3239479076455858 51.37936409235277 xlo xhi
0.6545898504212566 51.04872414958575 ylo yhi
0.8392286125034403 50.864085387494825 zlo zhi
7.77846734328024 7.222261186239844 6.722559310701349 xy xz yz

Masses

1 65.38
2 1.0079
3 1.0079
4 12.0107
5 12.0107
6 12.0107
7 12.0107
8 12.0107
9 12.0107
10 12.0107
11 15.9994
12 15.9994
13 15.9994

Pair Coeffs # buck6d/coul/gauss/long

1 50784 2.62009 5731.71 39.9418 0.341054
2 3680 4 32.805 0.106908 0.977155
3 3680 4 32.805 0.106908 0.977155
4 10304 3.06122 457.18 4.52185 0.608002
5 10304 3.06122 457.18 4.52185 0.60801
6 10304 3.06122 457.18 4.52185 0.60801
7 10304 3.09278 429.894 3.91702 0.608002
8 4968 2.94118 280.225 7.91687 0.60801
9 4968 2.94118 280.225 7.91687 0.60801
10 4968 2.94118 280.225 7.91687 0.60801
11 10856 3.2967 308.776 1.60225 0.632701
12 10856 3.2967 308.776 1.60225 0.632728
13 10856 3.2967 308.776 1.60225 0.632701

Dihedral Coeffs # opls

1 0 0 0 0
2 0 0 0 0
3 0 0 0 0
4 0 6.04559 0 0
5 0 5.972 0 0
6 0 0 0 0
7 0 0 0 0
8 0 6.28154 0 0
9 0 5.972 0 0
10 0 5 0 0
11 0 0 0 0
12 0 1.902 0 0
13 0 1.902 0 0
14 0 5.11727 0 0
15 0 3.98217 0 0
16 0 3.66469 0 0
17 4.7638 2.75011 0.191432 0
18 0 3.012 0 0
19 0 0.076 0 0
20 0 0 0.037991 0
21 0 0 0.51445 0
22 0 0 0.343642 0
23 -1.70264 -0.327922 0.811155 0
24 0 0 0.302052 0
25 0 0 -0.052641 0
26 0 0 -0.052641 0
27 -0.370853 -0.236138 1.97012 0
28 0 0 -0.052641 0
29 -0.370853 -0.236138 1.97012 0
30 -0.370853 -0.236138 1.97012 0
31 0 0 0.343076 0
32 0 0 0.870477 0
33 0 0 0.010079 0
34 0.803729 -0.768357 1.29818 0

Improper Coeffs # inversion/harmonic

1 0 0
2 1.18775 0
3 0 0
4 13.5247 0

Atoms # full

2 1 1 1.42 24.90719981449723 1.8468409830241477 3.0867615474058767 0 0 0
467 1 4 0.18 1.7431772358320163 8.339813268384876 1.5614601592970763 0 0 0
473 1 5 -0.12 2.730602821322467 7.458312693886094 1.106991574202761 0 0 0
6018 5 4 0.18 26.706757552574775 5.614364201489055 1.9494816127274055 0 0 0
56 1 3 0.06 4.361514558817842 4.992243615198966 2.269563423618931 0 0 0
586 1 3 0.06 20.258281075221095 7.765479011772477 6.08164128536236 0 0 0
6032 5 6 -0.06326 26.944579956572053 2.716921624420142 7.338333984747654 0 0 0
29 1 3 0.06 24.03982242658353 3.9333186522124683 7.031215108906893 0 0 0
297 1 6 -0.06326 14.797796452475335 2.4419353124814682 6.914509492325168 0 0 0
71 1 3 0.06 23.992785838855777 1.6219649858622653 7.775599321525058 0 0 0
1530 2 3 0.06 5.41606811012153 5.905563881449743 1.0512911456794665 0 0 1
116 1 7 0.61 0.9455242980032713 4.120813672711698 1.1291886135925653 0 0 0
703 1 8 -0.12 12.6540737454797 10.722873707256394 5.217301391327606 0 0 0
645 1 3 0.06 21.034362008053453 10.511191068853018 7.283904851299665 0 0 0
241 1 3 0.06 16.82688626265691 4.724956033199915 3.367389136162347 0 0 0
6093 5 12 -0.12613 26.67812829922891 3.776414020052386 6.517286532685079 0 0 0
328 1 8 -0.12 10.25962790447748 4.349533582928097 4.488250315722879 0 0 0
661 1 5 -0.12 15.868424572008617 12.893844935935185 7.2803234221837565 0 0 0
220 1 3 0.06 8.719250860800644 4.528678520165997 3.1330172041619675 0 0 0
2034 2 13 -0.72 3.2242854018782636 10.202327554022423 1.2818409616732456 0 0 1
182 1 13 -0.72 25.525281823790497 1.9031152079255782 4.84501653591557 0 0 0
6300 5 2 0.12 28.342548218971775 12.164233442888094 6.691688665697759 0 0 0
829 1 3 0.06 21.830398811850596 2.2073581652877685 7.037423573352945 0 0 0
383 1 3 0.06 22.92606393735698 10.353855623408604 3.1962948957715867 0 0 0
20 1 3 0.06 5.962108385209004 3.4780735182487232 1.621989775924045 0 0 0
125 1 8 -0.12 22.998744798988398 4.157623900626055 7.355136823277399 0 0 0
184 1 13 -0.72 25.442429820999028 3.7444728012932345 2.6916710138941418 0 0 0
289 1 5 -0.12 13.208839951182519 6.520085907735325 1.4475372314078225 0 0 0
205 1 3 0.06 18.9854394823769 3.7129266791315914 3.3701291066539314 0 0 0
486 1 7 0.61 2.1399919022185676 9.801153654464185 1.8206247217460407 0 0 0
419 1 3 0.06 23.655773857092683 7.886335360498051 3.1770147511833766 0 0 0
16 1 3 0.06 26.253193080327286 5.9784161386731896 5.0662737895351375 0 0 0
1679 2 3 0.06 18.597492248974323 3.2153450740776135 1.8024746597226904 0 0 1
256 1 3 0.06 9.061619668736121 1.6309258617644802 7.455549265220563 0 0 0
598 1 3 0.06 16.70109044078209 8.930455644067274 5.432387067040328 0 0 0
142 1 10 0.06939 27.10279440841214 5.04406529391515 6.839080232774277 0 0 0
437 1 3 0.06 5.785699564094624 8.066292968336475 3.75699103669015 0 0 0
691 1 9 -0.18 11.722604150703662 11.909261493672453 5.368203895029106 0 0 0
237 1 3 0.06 13.585962333631205 4.617614766035089 7.8047888710170055 0 0 0
521 1 8 -0.12 8.069538490536415 7.863489152607907 1.996126251336223 0 0 0
18 1 3 0.06 4.134909126455652 1.350881731396428 5.738398251800974 0 0 0
41 1 3 0.06 23.4214566309785 4.740191121936195 4.462722357030767 0 0 0
356 1 12 -0.12613 16.686998493247206 5.475367646870171 1.5490558202358573 0 0 0
706 1 8 -0.12 21.237388810744395 8.701066868089315 4.437897531303507 0 0 0
193 1 2 0.12 12.149232992178957 6.192903342767268 1.3349606231253117 0 0 0
540 1 12 -0.12613 24.913959290732112 8.86773360969774 1.9066187599063176 0 0 0
643 1 3 0.06 13.986680070118783 8.573628668114376 5.025154831838992 0 0 0
410 1 3 0.06 24.758884170444556 11.950733204584182 6.226702347724743 0 0 0
709 1 8 -0.12 13.125872873204099 8.331271630001716 5.720004181298351 0 0 0
479 1 6 -0.06326 25.85724585977075 7.885407370465702 1.8240879011802351 0 0 0
186 1 1 1.42 14.598353350344901 1.6802861696328155 2.4061566746780083 0 0 0
551 1 13 -0.72 26.760837489094342 10.533874206752609 2.2308817743325258 0 0 0
404 1 3 0.06 25.70413715420368 8.586030866317728 4.947488267469526 0 0 0
658 1 5 -0.12 15.72136083713243 7.5995234639246005 2.06249716759525 0 0 0
143 1 8 -0.12 22.158598999343376 4.964341713925693 6.357595943373638 0 0 0
265 1 3 0.06 20.277343290111848 5.594779976447424 2.3508668357542426 0 0 0
239 1 3 0.06 19.472493182350835 2.1246140060664036 5.273415227050945 0 0 0
1715 2 3 0.06 17.950261183504235 5.937217135746248 2.999478161036195 0 0 1
646 1 3 0.06 7.427677968025234 8.29251056134747 1.162582861770642 0 0 0
721 1 3 0.06 12.01214223449276 12.552342690182947 4.531119243738527 0 0 0
500 1 8 -0.12 25.72914956368149 8.603031298197845 6.021142844604675 0 0 0
35 1 3 0.06 22.164574767828373 3.50685537605566 4.806579512096077 0 0 0
431 1 3 0.06 5.8008213376060525 9.392477462175782 2.438585555430497 0 0 0
3150 3 2 0.12 8.173765618336361 1.5138726679106598 3.3722450979794383 0 1 0
52 1 3 0.06 26.28365546368968 5.420548575128225 7.472428925465751 0 0 0
244 1 3 0.06 10.012596393853206 5.322424136722123 4.978645130494732 0 0 0
633 1 3 0.06 19.6884012762151 13.21908893840307 7.5994807127079715 0 0 0
724 1 12 -0.12613 20.4579413132188 13.622221905445187 4.099657879417018 0 0 0
316 1 9 -0.18 9.785623060978532 4.371023621820896 3.0321738960639912 0 0 0
364 1 13 -0.72 14.075154925750727 2.0921635644439496 4.228807811075066 0 0 0
527 1 8 -0.12 21.220339828929124 9.189575982902545 2.870590107406342 0 0 0
104 1 5 -0.12 25.639233694236765 6.516481447863396 2.0808632805274545 0 0 0
425 1 3 0.06 23.191545217209388 7.902543356280904 1.397073184445875 0 0 0
3246 3 5 -0.12 7.658007274733629 1.030357324626414 2.5229025049298235 0 1 0
685 1 8 -0.12 12.76287704655507 9.722814380071553 6.388215113008555 0 0 0
1080 1 8 -0.12 9.310872114713792 2.6145456837481857 7.876766163739372 0 0 0
6036 5 7 0.61 26.320640869383467 4.182405795304433 1.812269669952887 0 0 0
363 1 13 -0.72 14.97958327763402 3.4666651045240315 1.3653583441068617 0 0 0
506 1 9 -0.18 25.433593267631068 11.142228432787377 5.897683019866754 0 0 0
309 1 8 -0.12 13.612806689378951 5.80266943136645 5.977215273636325 0 0 0
374 1 1 1.42 27.123380415702265 12.543559274210775 2.587180857495703 0 0 0
268 1 3 0.06 11.268608207383712 3.185513140443379 6.940838473961614 0 0 0
673 1 7 0.61 15.459762569611442 13.645390530089871 4.99578150007736 0 0 0
327 1 10 0.06939 14.221196525294847 4.76010613346796 6.880528385362902 0 0 0
718 1 3 0.06 17.5817208921366 7.842279587848078 6.474365463786744 0 0 0
345 1 8 -0.12 13.498383826901415 7.194304870298309 6.641212115794641 0 0 0
22 1 3 0.06 2.4144933418532526 5.868046314275755 4.717798324855426 0 0 0
700 1 8 -0.12 18.794827455002647 8.807457999135318 5.062954206281326 0 0 0
358 1 12 -0.12613 14.49941016114158 3.585508528292846 6.210158913473714 0 0 0
1823 2 8 -0.12 19.913766154588856 4.870784786827289 1.6604085918150984 0 0 1
295 1 6 -0.06326 15.566049642059623 6.264699306015083 1.7225144543624578 0 0 0
562 1 2 0.12 16.667765947416648 8.059219810754058 2.106376985861386 0 0 0
676 1 8 -0.12 10.188846662566817 9.122625516915946 1.4002993632824263 0 0 0
1869 2 3 0.06 22.509748769442375 10.139545343340291 1.4124197596980816 0 0 1
149 1 8 -0.12 22.331628344912158 2.810869028288238 7.8589168546815715 0 0 0
3240 3 4 0.18 8.244166767354159 1.059986018292563 1.2674198580347267 0 1 0
267 1 3 0.06 12.891086155589564 7.108061243433896 7.508222766262603 0 0 0
440 1 3 0.06 23.841583937116457 9.882183966318895 6.11436164207842 0 0 0
675 1 8 -0.12 21.536054996084104 13.285638963373524 6.3001615035087175 0 0 0
300 1 7 0.61 14.081620332548727 4.265562010534323 1.0704755646276278 0 0 0
524 1 8 -0.12 27.13127192732435 8.285501920776236 6.622548827411892 0 0 0
334 1 8 -0.12 10.207612018724953 3.4056759359179973 6.887195313487165 0 0 0
243 1 3 0.06 15.219416061491097 5.024715631008244 7.30934479128674 0 0 0
208 1 3 0.06 10.025651140063662 2.28975669638509 5.079865319281412 0 0 0
628 1 3 0.06 20.47277799317609 9.963758439411322 2.785886081606551 0 0 0
416 1 3 0.06 26.474454154859604 11.402013463571903 6.25178491834016 0 0 0
740 1 13 -0.72 15.911337263368223 12.538110104020577 4.550659533984346 0 0 0
2213 2 13 -0.72 13.863070638120487 10.616280228289714 1.6577462718004017 0 0 1
1554 2 3 0.06 20.854715994032823 4.207590463792744 1.5150961023540046 0 0 1
483 1 7 0.61 6.069988495033498 12.9332743784178 1.6743577946564283 0 0 0
3312 3 11 -1.78 13.145607030297196 0.8432952936147775 1.4497716762412998 0 1 0
619 1 3 0.06 12.388333175681815 10.182262312701283 4.351358600879728 0 0 0
401 1 3 0.06 8.427468939094688 9.734343879915095 3.13860713073089 0 0 0
455 1 3 0.06 7.716341904038845 6.800800472555352 2.162284435919606 0 0 0
310 1 8 -0.12 9.79259556713567 3.28204462855746 5.423685533982872 0 0 0
670 1 7 0.61 14.868466145653427 9.93857904098412 2.052514242837484 0 0 0
730 1 13 -0.72 16.028491813183635 10.375510428471765 2.385423727124617 0 0 0
631 1 3 0.06 14.515025896494967 7.371898996691276 6.924072447672906 0 0 0
509 1 10 0.06939 23.542793957422163 8.473703390556295 2.2213879780274146 0 0 0
722 1 11 -1.78 15.439924273112954 13.298889257041443 1.442779267823342 0 0 0
568 1 3 0.06 10.274240698941886 9.63206847091627 2.343337750718607 0 0 0
458 1 3 0.06 26.99123685698925 7.807678857814349 7.588349570065825 0 0 0
567 1 3 0.06 22.173180226461206 13.8270214649813 6.988034275724182 0 0 0
6002 5 3 0.06 2.459263384423738 7.921667879291224 6.247361708088058 1 0 0
580 1 3 0.06 19.815189109687736 6.972359648071406 4.54148371288832 0 0 0
601 1 3 0.06 12.039446934235048 12.556274081674694 6.21696544275623 0 0 0
94 1 3 0.06 27.69679852887026 9.180557450114186 6.769125426501499 0 0 0
536 1 3 0.06 25.438827352780244 11.281692997713876 4.784806355462964 0 0 0
398 1 3 0.06 25.176578803687967 7.672227116046947 6.2525975654895705 0 0 0
682 1 8 -0.12 20.038052413970036 7.946801198285182 5.008134120091641 0 0 0
652 1 4 0.18 14.645572982851641 8.440497345063635 2.172716428381788 0 0 0
65 1 3 0.06 22.358694260600355 6.052889169117621 6.413187362462926 0 0 0
533 1 3 0.06 6.572455462500486 11.036111044789282 4.302002593688929 0 0 0
59 1 3 0.06 21.11342857121109 4.862702684568674 6.60630157335167 0 0 0
497 1 8 -0.12 7.848158918434374 8.758688793473247 3.202540397371542 0 0 0
669 1 7 0.61 18.929490646537296 13.226954960353698 1.6534580553626461 0 0 0
98 1 4 0.18 1.260865777029625 5.5765764423406825 1.314324026099762 0 0 0
449 1 3 0.06 20.7518036571582 8.333199852360575 2.2751915280391035 0 0 0
131 1 9 -0.18 22.4505019864444 4.55685957780188 4.921157638125208 0 0 0
518 1 8 -0.12 24.904817787592876 9.827867882713935 6.5024535396199274 0 0 0
515 1 8 -0.12 6.266965806363064 9.034316249880508 3.417176098878896 0 0 0
161 1 3 0.06 21.77939280302876 5.143192178478976 4.270305316238042 0 0 0
395 1 3 0.06 8.266057128526814 8.28584326853398 4.144912771859376 0 0 0
8 1 2 0.12 24.73023015682792 6.118137529550984 2.6001151493450565 0 0 0
407 1 3 0.06 6.287210725295255 9.700650075185406 5.4651478097498565 0 0 0
3259 3 7 0.61 9.695798989528145 1.0925438753761758 1.298107881200625 0 1 0
712 1 8 -0.12 9.560648408144678 7.757096330167944 1.7466487628705172 0 0 0
546 1 13 -0.72 27.73378303020982 13.01476454654184 4.434557535826681 0 0 0
1260 1 8 -0.12 7.91845049451268 13.555249775340146 7.921509402672227 0 0 0
526 1 8 -0.12 6.888157937016255 14.000591666010996 6.840983087242333 0 0 0
434 1 3 0.06 24.87608357381028 9.777575573351617 7.633578309974158 0 0 0
558 1 1 1.42 16.370800226340474 12.303296537266537 2.6898830985041555 0 0 0
664 1 6 -0.06326 13.337277051959518 7.856729549720801 1.8451207319640552 0 0 0
174 1 13 -0.72 23.021541950022137 1.4364464840009628 2.7245190461498554 0 0 0
565 1 2 0.12 15.598737579459065 11.900271978851976 6.940644612841385 0 0 0
279 1 3 0.06 12.381240639452468 8.120596094167883 4.924649627494821 0 0 0
735 1 13 -0.72 18.2831507430626 12.666373082483663 2.5993919374080043 0 0 0
688 1 9 -0.18 17.46788159678148 8.137443841062435 5.472265259436494 0 0 0
640 1 3 0.06 21.473625841841095 9.604784058052946 5.034491122334521 0 0 0
583 1 3 0.06 13.660416484889877 10.036090707653187 6.993913724753091 0 0 0
573 1 3 0.06 22.21597878508908 12.46790806503876 5.908318533375658 0 0 0
634 1 3 0.06 10.046902252971167 7.301657214110341 2.6299253850954356 0 0 0
595 1 3 0.06 10.59312082013745 11.709551812419939 5.317135534726155 0 0 0
346 1 3 0.06 10.242848314303172 5.182720005390409 2.4387968362914725 0 0 0
1367 1 3 0.06 19.544767721523076 12.18169683908073 6.195972954189952 0 0 0
503 1 9 -0.18 6.004680178883573 10.104911260615195 4.495523648114587 0 0 0
655 1 4 0.18 15.85696864760047 13.9622414294767 6.354298012606106 0 0 0
466 1 4 0.18 7.5972288969800985 12.938338734553112 1.6554462976972308 0 0 0
413 1 3 0.06 4.99926731592466 10.432077158054732 4.547411676559715 0 0 0
113 1 7 0.61 22.500356604229733 0.9939303596757699 1.637802558125658 0 0 0
616 1 3 0.06 18.939546540298682 9.63315156723906 5.787444710435726 0 0 0
207 1 3 0.06 14.260411018779024 5.956802369052982 5.064399416827091 0 0 0
622 1 3 0.06 18.65697127788547 9.199697401217758 4.027383035261293 0 0 0
214 1 3 0.06 8.695761255068232 3.33689312500044 5.331241485428409 0 0 0
140 1 10 0.06939 4.6877027108509575 5.122327460723308 1.2350549717854 0 0 0
283 1 4 0.18 14.354866289058789 5.732856304917875 1.3176134468033975 0 0 0
307 1 8 -0.12 18.720587806793002 4.117523517385859 2.361126575361981 0 0 0
1194 1 3 0.06 8.47131733000273 12.710764108739669 7.5942263815079 0 0 0
592 1 3 0.06 17.141080179751647 7.168388505160603 4.83703026253012 0 0 0
201 1 3 0.06 12.695989393528208 5.5477184476187205 5.440111246429996 0 0 0
226 1 3 0.06 9.874014876342727 3.365543820937202 2.5399715699200938 0 0 0
589 1 3 0.06 11.83272795437153 9.737101827831669 7.059561641781495 0 0 0
491 1 8 -0.12 22.60071035687961 9.63017184662899 2.370850849852305 0 0 0
711 1 8 -0.12 20.277179578752026 12.522724726315401 6.984947785590036 0 0 0
725 1 12 -0.12613 12.198269179675897 8.608296177654793 2.0016111197114954 0 0 0
1014 1 3 0.06 10.047678654019418 4.4597531246469515 7.146564700208222 0 0 0
461 1 3 0.06 22.10008355782184 8.038277085078432 4.6840956111332925 0 0 0
625 1 3 0.06 13.641041341571578 11.01543727957138 4.947434488576582 0 0 0
203 1 3 0.06 17.108771707174345 1.8082983282892782 6.338811585618636 0 0 0
325 1 10 0.06939 17.546006209038875 5.026940586547147 2.619484848996901 0 0 0
1445 1 8 -0.12 20.761767862204128 11.349316320677863 7.942311805116222 0 0 0
250 1 3 0.06 11.446689172108886 4.269266554704121 4.406315629830791 0 0 0
110 1 6 -0.06326 2.5007661155262233 6.094632273486914 0.9137897387434912 0 0 0
58 1 3 0.06 2.0201510864555026 5.294376411485142 7.207973394384424 0 0 0
553 1 13 -0.72 25.32323042854453 13.262071151043205 2.4560623529255543 0 0 0
1182 1 3 0.06 6.406000897186527 13.109497780979483 6.28471773282294 0 0 0
5 1 2 0.12 20.94257705480854 1.301221388830662 3.487559348562281 0 0 0
377 1 2 0.12 3.702844592327375 7.880773929979665 0.85453531797713 0 0 0
443 1 3 0.06 9.83859071853413 7.146977904461961 0.8744006453954967 0 0 0
1017 1 3 0.06 22.93270666372554 6.082510461621114 13.611526412564093 0 0 0
850 1 6 -0.06326 4.187442387561889 7.786066359123637 14.232022293325727 0 0 0
1217 1 6 -0.06326 24.332904217035615 13.975229143426517 12.75183539812507 0 0 0
1099 1 13 -0.72 12.164995389891113 2.9783315529687138 14.66930873963242 0 0 0
1030 1 5 -0.12 15.182097030887869 2.5373469539852076 8.230916828901812 0 0 0
1131 1 3 0.06 27.65593916514738 9.792254615911101 10.741610520786688 0 0 0
1398 1 5 -0.12 17.168223085877436 9.160406118958905 14.19049720771877 0 0 0
952 1 3 0.06 18.104587734945984 7.232766515695714 8.320110467660598 0 0 0
1060 1 9 -0.18 19.7920854691649 5.105743028724796 9.606045251265126 0 0 0
766 1 3 0.06 22.194965900980858 7.22014254084004 10.805686765240186 0 0 0
772 1 3 0.06 23.259598704160993 5.762400462998782 11.27218058354069 0 0 0
1221 1 6 -0.06326 3.2336243477765585 13.166807316982498 8.679693807770441 0 0 0
1352 1 3 0.06 17.893950645294154 10.984262374863093 8.56682652962673 0 0 0
1476 1 13 -0.72 15.824155938453176 12.217225882745508 15.065031259878907 0 0 0
826 1 3 0.06 22.214917452334692 7.640533265591102 13.494505802049671 0 0 0
1280 1 12 -0.12613 26.747946847721774 10.40399601673949 14.406274878721124 0 0 0
1227 1 7 0.61 4.158938152272281 14.446699696508988 10.569263269124008 0 0 0
1361 1 3 0.06 22.59573490204465 9.756632948693975 9.458843216284718 0 0 0
869 1 8 -0.12 4.371487526893327 7.53390985110405 10.291706464130874 0 0 0
1457 1 3 0.06 20.66813995114881 10.959006378405716 11.51020594877975 0 0 0
1117 1 2 0.12 5.477699635842685 9.53716411173982 14.8036117876203 0 0 0
814 1 3 0.06 20.255750209382697 6.611307326298953 12.342430303887609 0 0 0
787 1 3 0.06 23.75417961191022 3.9805472750475546 11.572939884777611 0 0 0
1205 1 4 0.18 25.145312456787742 14.297990792034627 13.92626122925694 0 0 0
1350 1 3 0.06 12.772714476280093 9.458010544640038 12.655634933708455 0 0 0
751 1 3 0.06 24.449389448577495 3.680705792216071 9.315674092927168 0 0 0
1308 1 3 0.06 12.192719595705274 12.080132867696097 12.789466656231461 0 0 0
83 1 3 0.06 21.485980583170907 3.0458063833154263 8.532598807209727 0 0 0
1368 1 3 0.06 23.780588317190237 8.9440580430446 13.910819507059024 0 0 0
1140 1 3 0.06 6.400551535807928 13.99404809491603 9.49358015095349 0 0 0
803 1 3 0.06 5.940210841470804 6.076968474283757 10.508760684808173 0 0 0
1467 1 12 -0.12613 16.31463210825762 12.011815085653081 9.48150473399401 0 0 0
1224 1 7 0.61 8.139015359920872 14.744919630039593 13.690407479356827 0 0 0
1090 1 3 0.06 20.1117923294192 4.092583740871634 9.88803345343091 0 0 0
1146 1 3 0.06 9.656163018634617 11.716351265369711 11.362134904227396 0 0 0
1472 1 13 -0.72 20.349511928916993 14.98118500278248 14.938292331509594 0 0 0
1236 1 8 -0.12 7.213199662583014 13.209149389373248 9.2046203528922 0 0 0
1163 1 3 0.06 23.206580016231026 14.114983925199992 10.046869914050239 0 0 0
1469 1 13 -0.72 20.19092116063888 13.38327620191232 13.292965644562404 0 0 0
1302 1 2 0.12 18.133236319158286 9.632232583240004 14.509545365524296 0 0 0
1337 1 3 0.06 21.447867800965064 9.325045273047184 11.78838057020498 0 0 0
904 1 3 0.06 25.579230358019903 7.046045433609248 10.077619466600279 0 0 0
1465 1 12 -0.12613 13.871797055289766 10.470556476848104 14.065560354201947 0 0 0
1219 1 6 -0.06326 27.92550060101673 9.76852426780512 14.192283350057782 0 0 0
779 1 3 0.06 3.2927220120191265 5.092966320248344 9.37929861690514 0 0 0
868 1 8 -0.12 22.890346501516774 6.7309869252799714 11.637179877148316 0 0 0
1348 1 3 0.06 12.58888879117803 13.183215026740514 11.10117627028422 0 0 0
1129 1 3 0.06 23.855849544487803 11.402487692267789 13.297674335869438 0 0 0
969 1 3 0.06 13.453338942850563 4.458042380452812 11.627507391787383 0 0 0
1434 1 10 0.06939 12.591459986270568 10.055526455186424 13.552826571460189 0 0 0
1388 1 3 0.06 16.307362773855083 7.19133240262342 10.774527086535757 0 0 0
886 1 8 -0.12 24.12688025080858 7.700709427899619 11.676505870608512 0 0 0
23 1 3 0.06 23.246120313964337 4.767760868518917 8.222448439786223 0 0 0
892 1 8 -0.12 22.194715991239605 6.652913269716325 13.027482880222085 0 0 0
1421 1 8 -0.12 21.735317372550544 11.698153744699663 9.047588673440517 0 0 0
1282 1 12 -0.12613 3.2278032237831353 11.984564234840784 9.425786192474709 0 0 0
898 1 8 -0.12 8.902668113150732 6.67327983138004 13.49455238647921 0 0 0
1134 1 3 0.06 6.667073764460781 12.260783467915509 9.146742302555618 0 0 0
767 1 3 0.06 4.9563517098197165 8.04166859192493 9.520064169323458 0 0 0
7209 5 13 -0.72 4.043143960577778 13.407231527061157 11.313534160384984 1 0 0
874 1 9 -0.18 24.927400025350494 7.873395674735539 10.392711199340845 0 0 0
7081 5 3 0.06 27.853473676130267 10.986406408702525 8.418962961192696 0 0 0
785 1 3 0.06 4.784154196644703 4.254775385079091 9.140302801517905 0 0 0
1027 1 5 -0.12 20.900719222334025 2.3501105281721086 13.060115244513009 0 0 0
859 1 8 -0.12 24.05609324951916 2.7269655377145723 9.804558072505603 0 0 0
1439 1 8 -0.12 22.157360582363225 10.63481422227265 10.072444425067554 0 0 0
743 1 1 1.42 26.932322464866026 3.8301041877163344 13.443435691465764 0 0 0
929 1 1 1.42 16.32510423915048 3.1533471739525556 12.788661125820294 0 0 0
858 1 7 0.61 2.0844348932660974 2.3718948127538737 10.514479306877506 0 0 0
1213 1 5 -0.12 4.461360392934147 9.0982062562235 14.562446912118142 0 0 0
1011 1 3 0.06 9.763483478868645 4.740960664543382 13.5476143246284 0 0 0
1355 1 3 0.06 22.949415525932615 11.161526205100783 10.645198698397147 0 0 0
917 1 13 -0.72 5.463577517178615 2.622371183344142 14.829403912888377 0 0 0
1397 1 5 -0.12 22.985628689703294 13.863366363584865 12.906787794557705 0 0 0
951 1 3 0.06 12.000691426224925 5.795299930584727 13.198209869804298 0 0 0
957 1 3 0.06 11.286474083660437 7.032374782156842 12.246894711364426 0 0 0
1044 1 8 -0.12 10.062228945487565 2.3334696540178776 9.161973785483955 0 0 0
7171 5 10 0.06939 28.23336355410397 11.356519408889653 9.396279019564023 0 0 0
820 1 3 0.06 8.918542236275565 7.59645998737812 12.862990815998621 0 0 0
1005 1 3 0.06 20.967317317279427 5.012935236729307 12.541310265007258 0 0 0
1078 1 8 -0.12 16.52635580059378 7.414582808528263 9.74525243196652 0 0 0
975 1 3 0.06 19.518420231733202 8.080576823112109 14.5204258436528 0 0 0
988 1 3 0.06 17.69777502571853 4.910719863562401 10.487721208899087 0 0 0
893 1 8 -0.12 2.893554807678992 7.699630421396581 9.972594568124594 0 0 0
987 1 3 0.06 11.059982786194215 5.707610664246413 10.205621085300567 0 0 0
936 1 3 0.06 10.470201442541443 3.361280169364354 9.475213665723045 0 0 0
993 1 3 0.06 11.241546774918982 4.254196783022714 11.13980126282347 0 0 0
972 1 3 0.06 8.353840543018734 2.627475883369084 10.513006519723621 0 0 0
1374 1 3 0.06 10.778244010492152 12.84457903103707 14.541127466240384 0 0 0
773 1 3 0.06 4.606217839557164 8.104919055075097 11.216246118773302 0 0 0
1454 1 8 -0.12 16.07081561976422 8.921439541429791 9.553487271925924 0 0 0
958 1 3 0.06 18.664561623860184 7.577101119736787 9.931858943165928 0 0 0
927 1 1 1.42 14.009710729793941 3.6506544558923473 14.95399407644596 0 0 0
1089 1 3 0.06 13.362748556692448 4.804323471288022 9.854513315369903 0 0 0
1331 1 3 0.06 20.273612169918746 9.739794316286408 10.399466041112401 0 0 0
1306 1 3 0.06 14.149570162407539 14.236734835175442 9.723391051653211 0 0 0
970 1 3 0.06 20.226013288114125 5.459896996803146 8.637352359693647 0 0 0
1023 1 4 0.18 15.75717550062236 7.3440888917817215 13.602798918149503 0 0 0
1392 1 4 0.18 16.12328823063573 10.028539030363916 14.296085854228107 0 0 0
963 1 3 0.06 13.49315984480647 6.136680119822439 10.996971538421167 0 0 0
875 1 9 -0.18 4.31870745582456 5.242789179334658 9.163856259806254 0 0 0
1408 1 7 0.61 20.784815322766065 14.120751563487211 14.119638063629626 0 0 0
1035 1 6 -0.06326 17.014139134118484 7.859432476061 13.77790467554466 0 0 0
1083 1 8 -0.12 20.835952013918742 5.968810507467138 12.983335042589921 0 0 0
1041 1 7 0.61 15.455536657199136 5.799264870008657 13.536749469732927 0 0 0
1436 1 10 0.06939 17.423022998054897 11.10464432682475 9.557934676542304 0 0 0
808 1 3 0.06 23.692522423124828 8.630118357586571 11.964436686595176 0 0 0
793 1 3 0.06 22.240026197076453 3.470318910795335 10.751367187629482 0 0 0
1053 1 8 -0.12 11.20434730197602 5.974828337900652 12.406636164793728 0 0 0
1432 1 10 0.06939 12.238689402739904 14.120066585348933 10.673510471216035 0 0 0
1225 1 7 0.61 3.729236591358931 11.42957406926015 14.438965723362347 0 0 0
1319 1 3 0.06 21.11845427637039 12.437096710503788 9.618795544192437 0 0 0
741 1 1 1.42 3.645361446318147 3.35568236684159 15.061842655349302 0 0 0
933 1 2 0.12 13.63169891618269 7.713181778588385 13.773621557240185 0 0 0
1071 1 8 -0.12 11.5518835310946 5.289187032755239 11.082917877970885 0 0 0
1278 1 12 -0.12613 24.894127583729475 13.8182861805368 11.49925304733489 0 0 0
1077 1 8 -0.12 9.793129495832144 5.574571071772882 12.875032799928219 0 0 0
1242 1 9 -0.18 9.11275336194739 11.716849137824438 10.380143524362955 0 0 0
1249 1 10 0.06939 25.833094490182127 10.672422106317905 13.40184064437862 0 0 0
1029 1 5 -0.12 14.675362713088006 8.194568891423167 13.777680878443336 0 0 0
1346 1 3 0.06 18.225901186422714 11.672531936879464 10.191658227811583 0 0 0
1159 1 3 0.06 25.708177566275634 9.652940597603928 12.794093263566143 0 0 0
1096 1 12 -0.12613 18.035052151131513 6.9498226383079995 13.626464940273895 0 0 0
911 1 12 -0.12613 5.163317184766649 6.891371782284355 14.044662826043753 0 0 0
1106 1 13 -0.72 16.243369246899483 5.095859214953267 12.881022823010328 0 0 0
1277 1 11 -1.78 4.5779340445129755 14.713419329115561 13.917265508933559 0 0 0
1477 1 13 -0.72 17.786193855231364 13.743042684245024 11.109216949444834 0 0 0
854 1 7 0.61 24.4627843739349 2.632364942893312 14.460786675070063 0 0 0
1072 1 8 -0.12 18.279252105728116 5.357834278619452 9.612652844015347 0 0 0
7087 5 3 0.06 27.372202229546392 11.93453813435865 9.71233213455358 0 0 0
915 1 13 -0.72 27.44349462957473 5.770312990327231 13.701582435264562 0 0 0
1054 1 8 -0.12 17.98873622578684 6.943537386111258 9.400266245574594 0 0 0
1047 1 8 -0.12 20.082801405993887 5.869503867417073 14.321405734411416 0 0 0
832 1 3 0.06 9.373214886110265 5.054330684336144 11.977729560028846 0 0 0
754 1 3 0.06 7.24092263197367 5.870240219634523 12.528220337395494 0 0 0
1416 1 8 -0.12 11.625549017399273 11.203506234570051 13.259796855383192 0 0 0
1344 1 3 0.06 12.11418047386689 9.376112605038124 14.29144429701448 0 0 0
1314 1 3 0.06 10.834530789311696 10.895697197121109 12.543957676757849 0 0 0
1272 1 3 0.06 9.873027999034315 11.756642198418005 9.598938301895746 0 0 0
880 1 10 0.06939 6.543216777210174 7.313623158408792 14.014613962527596 0 0 0
1414 1 8 -0.12 13.132825787891154 14.255215195132813 9.473085891019675 0 0 0
895 1 8 -0.12 23.35921270718877 1.9806706523495792 8.604852918035284 0 0 0
1231 1 8 -0.12 24.477690321490275 10.97786560753323 14.09265056088881 0 0 0
778 1 3 0.06 24.361698935523666 7.983039951263907 9.473537151201818 0 0 0
1427 1 9 -0.18 21.11382117171071 10.1076025784021 11.044214911540147 0 0 0
1000 1 3 0.06 15.007662810994786 8.973896764450124 9.892791564951711 0 0 0
1404 1 6 -0.06326 14.86890852374898 9.55885167383792 13.996924639864774 0 0 0
918 1 13 -0.72 3.50613246053973 5.189394731959603 14.858737772308789 0 0 0
1113 1 1 1.42 5.802586940815589 13.581005930040202 14.861603290596943 0 0 0
844 1 5 -0.12 27.792585555470037 8.395812251796425 14.170880030697118 0 0 0
1316 1 3 0.06 16.49016007810575 10.119135973901649 11.328328870596023 0 0 0
1376 1 3 0.06 16.063323436494628 9.207482392690492 8.470146087697088 0 0 0
748 1 2 0.12 26.731618100824132 7.9968476263740955 14.179197798327056 0 0 0
1391 1 4 0.18 22.34886108603129 14.01123544784339 14.165730928889857 0 0 0
887 1 8 -0.12 4.797016232174917 6.037928847300598 10.372598338404009 0 0 0
925 1 13 -0.72 27.045796893714016 3.1982462770073754 11.511489624207096 0 0 0
1127 1 3 0.06 25.66414850210342 13.618545045974283 9.15259298416051 0 0 0
1325 1 3 0.06 22.690661006038994 12.21894234814312 8.625107440153478 0 0 0
802 1 3 0.06 24.723407040349542 7.382317689588353 12.547042003802524 0 0 0
1411 1 7 0.61 16.399016874275254 11.482076128322962 14.199739489014945 0 0 0
1301 1 2 0.12 22.30541934905399 13.69890115870152 12.024725206840403 0 0 0
1285 1 13 -0.72 4.853586116575357 11.90484429466957 14.827954252746208 0 0 0
790 1 3 0.06 6.723500634135171 8.191545696868776 13.268657520513823 0 0 0
1176 1 3 0.06 8.83143115727835 13.896358542739225 10.410719016150344 0 0 0
999 1 3 0.06 9.179271383033363 6.906407168231726 14.515001542803219 0 0 0
1379 1 3 0.06 19.825076853713895 10.951500278585993 8.415952800594372 0 0 0
1059 1 9 -0.18 13.064363384954872 5.155462609710408 10.853221068098089 0 0 0
1312 1 3 0.06 12.991277430331143 13.357237529786337 8.905241970272966 0 0 0
784 1 3 0.06 25.486449865556324 8.813162340535403 10.370088706251835 0 0 0
1310 1 3 0.06 17.734144803082703 9.326797299547593 10.745669859593871 0 0 0
1101 1 13 -0.72 16.091758390430105 2.544712627382682 10.921648656763344 0 0 0
877 1 10 0.06939 23.248973066622693 3.1215173289230744 11.044384157897717 0 0 0
796 1 3 0.06 6.8861625318066775 7.672012532526185 15.03469380381488 0 0 0
1108 1 13 -0.72 18.163786709148333 2.8487768062632393 13.114111431138317 0 0 0
1109 1 13 -0.72 14.337573225041455 5.404426414046892 14.053257327792751 0 0 0