LAMMPS (29 Sep 2021)
clear
units real
boundary p p p
atom_style full


neighbor 2.0 bin


# ------------------------ MOF-FF FORCE FIELD ------------------------------


pair_style buck6d/coul/gauss/long     0.9000     0.9000    12.0000
box tilt large
dihedral_style opls
improper_style inversion/harmonic
read_data 		C7_222.data
Reading data file ...
  orthogonal box = (0.0000000 0.0000000 0.0000000) to (51.703312 51.703314 51.703314)
  2 by 4 by 7 MPI processor grid
  reading atoms ...
  11840 atoms
  scanning bonds ...
  4 = max bonds/atom
  scanning angles ...
  6 = max angles/atom
  scanning dihedrals ...
  36 = max dihedrals/atom
  scanning impropers ...
  2 = max impropers/atom
  reading bonds ...
  12544 bonds
  reading angles ...
  23808 angles
  reading dihedrals ...
  34944 dihedrals
  reading impropers ...
  1536 impropers
Finding 1-2 1-3 1-4 neighbors ...
  special bond factors lj:    0        0        0       
  special bond factors coul:  0        0        0       
     4 = max # of 1-2 neighbors
    12 = max # of 1-3 neighbors
    24 = max # of 1-4 neighbors
    22 = max # of special neighbors
  special bonds CPU = 0.003 seconds
  read_data CPU = 0.088 seconds
include			parameters.dat.txt

# ------------------------ MOF-FF FORCE FIELD ------------------------------

kspace_style ewald      1e-06
pair_style buck6d/coul/gauss/long     0.9000     0.9000    12.0000

pair_coeff     1     1           50784       2.6200873       5731.7134        39.94184      0.34105377    # buck6d->(zn4_o4@zn4o)|Zn4O_benz/gaussian->(zn4_o4@zn4o)|Zn4O_benz <--> buck6d->(zn4_o4@zn4o)|Zn4O_benz/gaussian->(zn4_o4@zn4o)|Zn4O_benz
pair_coeff     1     2       13670.593       3.1662269       495.43572       2.8200727      0.45538243    # buck6d->(zn4_o4@zn4o)|Zn4O_benz/gaussian->(zn4_o4@zn4o)|Zn4O_benz <--> buck6d->(h1_c1@ph)|benzene/gaussian->(h1_c1@ph)|benzene
pair_coeff     1     3       13670.593       3.1662269       495.43572       2.8200727      0.45538243    # buck6d->(zn4_o4@zn4o)|Zn4O_benz/gaussian->(zn4_o4@zn4o)|Zn4O_benz <--> buck6d->(h1_c1@me)|butane/gaussian->(h1_c1@me)|butane
pair_coeff     1     4       22875.278       2.8235294       1648.4078        14.02027      0.42066066    # buck6d->(zn4_o4@zn4o)|Zn4O_benz/gaussian->(zn4_o4@zn4o)|Zn4O_benz <--> buck6d->(c3_c2h1@ph)|benzene/gaussian->(c3_c3@ph)|Zn4O_benz
pair_coeff     1     5       22875.278       2.8235294       1648.4078        14.02027      0.42066187    # buck6d->(zn4_o4@zn4o)|Zn4O_benz/gaussian->(zn4_o4@zn4o)|Zn4O_benz <--> buck6d->(c3_c2h1@ph)|benzene/gaussian->(c3_c2h1@ph)|benzene
pair_coeff     1     6       22875.278       2.8235294       1648.4078        14.02027      0.42066187    # buck6d->(zn4_o4@zn4o)|Zn4O_benz/gaussian->(zn4_o4@zn4o)|Zn4O_benz <--> buck6d->(c3_c2o1@ph)|ph-O-butyl/gaussian->(c3_c2o1@ph)|ph-O-butyl
pair_coeff     1     7       22875.278       2.8368794       1602.4086       13.124311      0.42066066    # buck6d->(zn4_o4@zn4o)|Zn4O_benz/gaussian->(zn4_o4@zn4o)|Zn4O_benz <--> buck6d->(c3_c1o2@co2)|Zn4O_benz/gaussian->(c3_c1o2@co2)|Zn4O_benz
pair_coeff     1     8       15883.794       2.7713626       1280.1071       18.202956      0.42066187    # buck6d->(zn4_o4@zn4o)|Zn4O_benz/gaussian->(zn4_o4@zn4o)|Zn4O_benz <--> buck6d->(c4_c2h2@me)|butane/gaussian->(c4_c2h2@me)|butane
pair_coeff     1     9       15883.794       2.7713626       1280.1071       18.202956      0.42066187    # buck6d->(zn4_o4@zn4o)|Zn4O_benz/gaussian->(zn4_o4@zn4o)|Zn4O_benz <--> buck6d->(c4_c1h3@me)|butane/gaussian->(c4_c1h3@me)|butane
pair_coeff     1    10       15883.794       2.7713626       1280.1071       18.202956      0.42066187    # buck6d->(zn4_o4@zn4o)|Zn4O_benz/gaussian->(zn4_o4@zn4o)|Zn4O_benz <--> buck6d->(c4_c1h2o1@me)|ph-O-butyl/gaussian->(c4_c1h2o1@me)|ph-O-butyl
pair_coeff     1    11       23480.015        2.919708       1383.9296       8.7719648      0.42456807    # buck6d->(zn4_o4@zn4o)|Zn4O_benz/gaussian->(zn4_o4@zn4o)|Zn4O_benz <--> buck6d->(o4_zn4@zn4o)|Zn4O_benz/gaussian->(o4_zn4@zn4o)|Zn4O_benz
pair_coeff     1    12       23480.015        2.919708       1383.9296       8.7719648      0.42457209    # buck6d->(zn4_o4@zn4o)|Zn4O_benz/gaussian->(zn4_o4@zn4o)|Zn4O_benz <--> buck6d->(o2_c2@eth)|ph-O-butyl/gaussian->(o2_c2@eth)|ph-O-butyl
pair_coeff     1    13       23480.015        2.919708       1383.9296       8.7719648      0.42456807    # buck6d->(zn4_o4@zn4o)|Zn4O_benz/gaussian->(zn4_o4@zn4o)|Zn4O_benz <--> buck6d->(o2_c1zn1@co2)|Zn4O_benz/gaussian->(o2_c1zn1@co2)|Zn4O_benz
pair_coeff     2     2            3680               4          32.805      0.10690769       0.9771554    # buck6d->(h1_c1@ph)|benzene/gaussian->(h1_c1@ph)|benzene <--> buck6d->(h1_c1@ph)|benzene/gaussian->(h1_c1@ph)|benzene
pair_coeff     2     3            3680               4          32.805      0.10690769       0.9771554    # buck6d->(h1_c1@ph)|benzene/gaussian->(h1_c1@ph)|benzene <--> buck6d->(h1_c1@me)|butane/gaussian->(h1_c1@me)|butane
pair_coeff     2     4       6157.8178       3.4682081       129.19572      0.78772886      0.73005908    # buck6d->(h1_c1@ph)|benzene/gaussian->(h1_c1@ph)|benzene <--> buck6d->(c3_c2h1@ph)|benzene/gaussian->(c3_c3@ph)|Zn4O_benz
pair_coeff     2     5       6157.8178       3.4682081       129.19572      0.78772886      0.73006542    # buck6d->(h1_c1@ph)|benzene/gaussian->(h1_c1@ph)|benzene <--> buck6d->(c3_c2h1@ph)|benzene/gaussian->(c3_c2h1@ph)|benzene
pair_coeff     2     6       6157.8178       3.4682081       129.19572      0.78772886      0.73006542    # buck6d->(h1_c1@ph)|benzene/gaussian->(h1_c1@ph)|benzene <--> buck6d->(c3_c2o1@ph)|ph-O-butyl/gaussian->(c3_c2o1@ph)|ph-O-butyl
pair_coeff     2     7       6157.8178       3.4883721        124.7792      0.72632262      0.73005908    # buck6d->(h1_c1@ph)|benzene/gaussian->(h1_c1@ph)|benzene <--> buck6d->(c3_c1o2@co2)|Zn4O_benz/gaussian->(c3_c1o2@co2)|Zn4O_benz
pair_coeff     2     8       4275.7736       3.3898305       102.89611       1.0848184      0.73006542    # buck6d->(h1_c1@ph)|benzene/gaussian->(h1_c1@ph)|benzene <--> buck6d->(c4_c2h2@me)|butane/gaussian->(c4_c2h2@me)|butane
pair_coeff     2     9       4275.7736       3.3898305       102.89611       1.0848184      0.73006542    # buck6d->(h1_c1@ph)|benzene/gaussian->(h1_c1@ph)|benzene <--> buck6d->(c4_c1h3@me)|butane/gaussian->(c4_c1h3@me)|butane
pair_coeff     2    10       4275.7736       3.3898305       102.89611       1.0848184      0.73006542    # buck6d->(h1_c1@ph)|benzene/gaussian->(h1_c1@ph)|benzene <--> buck6d->(c4_c1h2o1@me)|ph-O-butyl/gaussian->(c4_c1h2o1@me)|ph-O-butyl
pair_coeff     2    11       6320.6076       3.6144578       103.50278      0.44181916      0.75107727    # buck6d->(h1_c1@ph)|benzene/gaussian->(h1_c1@ph)|benzene <--> buck6d->(o4_zn4@zn4o)|Zn4O_benz/gaussian->(o4_zn4@zn4o)|Zn4O_benz
pair_coeff     2    12       6320.6076       3.6144578       103.50278      0.44181916      0.75109952    # buck6d->(h1_c1@ph)|benzene/gaussian->(h1_c1@ph)|benzene <--> buck6d->(o2_c2@eth)|ph-O-butyl/gaussian->(o2_c2@eth)|ph-O-butyl
pair_coeff     2    13       6320.6076       3.6144578       103.50278      0.44181916      0.75107727    # buck6d->(h1_c1@ph)|benzene/gaussian->(h1_c1@ph)|benzene <--> buck6d->(o2_c1zn1@co2)|Zn4O_benz/gaussian->(o2_c1zn1@co2)|Zn4O_benz
pair_coeff     3     3            3680               4          32.805      0.10690769       0.9771554    # buck6d->(h1_c1@me)|butane/gaussian->(h1_c1@me)|butane <--> buck6d->(h1_c1@me)|butane/gaussian->(h1_c1@me)|butane
pair_coeff     3     4       6157.8178       3.4682081       129.19572      0.78772886      0.73005908    # buck6d->(h1_c1@me)|butane/gaussian->(h1_c1@me)|butane <--> buck6d->(c3_c2h1@ph)|benzene/gaussian->(c3_c3@ph)|Zn4O_benz
pair_coeff     3     5       6157.8178       3.4682081       129.19572      0.78772886      0.73006542    # buck6d->(h1_c1@me)|butane/gaussian->(h1_c1@me)|butane <--> buck6d->(c3_c2h1@ph)|benzene/gaussian->(c3_c2h1@ph)|benzene
pair_coeff     3     6       6157.8178       3.4682081       129.19572      0.78772886      0.73006542    # buck6d->(h1_c1@me)|butane/gaussian->(h1_c1@me)|butane <--> buck6d->(c3_c2o1@ph)|ph-O-butyl/gaussian->(c3_c2o1@ph)|ph-O-butyl
pair_coeff     3     7       6157.8178       3.4883721        124.7792      0.72632262      0.73005908    # buck6d->(h1_c1@me)|butane/gaussian->(h1_c1@me)|butane <--> buck6d->(c3_c1o2@co2)|Zn4O_benz/gaussian->(c3_c1o2@co2)|Zn4O_benz
pair_coeff     3     8       4275.7736       3.3898305       102.89611       1.0848184      0.73006542    # buck6d->(h1_c1@me)|butane/gaussian->(h1_c1@me)|butane <--> buck6d->(c4_c2h2@me)|butane/gaussian->(c4_c2h2@me)|butane
pair_coeff     3     9       4275.7736       3.3898305       102.89611       1.0848184      0.73006542    # buck6d->(h1_c1@me)|butane/gaussian->(h1_c1@me)|butane <--> buck6d->(c4_c1h3@me)|butane/gaussian->(c4_c1h3@me)|butane
pair_coeff     3    10       4275.7736       3.3898305       102.89611       1.0848184      0.73006542    # buck6d->(h1_c1@me)|butane/gaussian->(h1_c1@me)|butane <--> buck6d->(c4_c1h2o1@me)|ph-O-butyl/gaussian->(c4_c1h2o1@me)|ph-O-butyl
pair_coeff     3    11       6320.6076       3.6144578       103.50278      0.44181916      0.75107727    # buck6d->(h1_c1@me)|butane/gaussian->(h1_c1@me)|butane <--> buck6d->(o4_zn4@zn4o)|Zn4O_benz/gaussian->(o4_zn4@zn4o)|Zn4O_benz
pair_coeff     3    12       6320.6076       3.6144578       103.50278      0.44181916      0.75109952    # buck6d->(h1_c1@me)|butane/gaussian->(h1_c1@me)|butane <--> buck6d->(o2_c2@eth)|ph-O-butyl/gaussian->(o2_c2@eth)|ph-O-butyl
pair_coeff     3    13       6320.6076       3.6144578       103.50278      0.44181916      0.75107727    # buck6d->(h1_c1@me)|butane/gaussian->(h1_c1@me)|butane <--> buck6d->(o2_c1zn1@co2)|Zn4O_benz/gaussian->(o2_c1zn1@co2)|Zn4O_benz
pair_coeff     4     4           10304       3.0612245       457.17971       4.5218516      0.60800239    # buck6d->(c3_c2h1@ph)|benzene/gaussian->(c3_c3@ph)|Zn4O_benz <--> buck6d->(c3_c2h1@ph)|benzene/gaussian->(c3_c3@ph)|Zn4O_benz
pair_coeff     4     5           10304       3.0612245       457.17971       4.5218516      0.60800605    # buck6d->(c3_c2h1@ph)|benzene/gaussian->(c3_c3@ph)|Zn4O_benz <--> buck6d->(c3_c2h1@ph)|benzene/gaussian->(c3_c2h1@ph)|benzene
pair_coeff     4     6           10304       3.0612245       457.17971       4.5218516      0.60800605    # buck6d->(c3_c2h1@ph)|benzene/gaussian->(c3_c3@ph)|Zn4O_benz <--> buck6d->(c3_c2o1@ph)|ph-O-butyl/gaussian->(c3_c2o1@ph)|ph-O-butyl
pair_coeff     4     7           10304       3.0769231       443.36171       4.2093581      0.60800239    # buck6d->(c3_c2h1@ph)|benzene/gaussian->(c3_c3@ph)|Zn4O_benz <--> buck6d->(c3_c1o2@co2)|Zn4O_benz/gaussian->(c3_c1o2@co2)|Zn4O_benz
pair_coeff     4     8       7154.7377               3       358.35904               6      0.60800605    # buck6d->(c3_c2h1@ph)|benzene/gaussian->(c3_c3@ph)|Zn4O_benz <--> buck6d->(c4_c2h2@me)|butane/gaussian->(c4_c2h2@me)|butane
pair_coeff     4     9       7154.7377               3       358.35904               6      0.60800605    # buck6d->(c3_c2h1@ph)|benzene/gaussian->(c3_c3@ph)|Zn4O_benz <--> buck6d->(c4_c1h3@me)|butane/gaussian->(c4_c1h3@me)|butane
pair_coeff     4    10       7154.7377               3       358.35904               6      0.60800605    # buck6d->(c3_c2h1@ph)|benzene/gaussian->(c3_c3@ph)|Zn4O_benz <--> buck6d->(c4_c1h2o1@me)|ph-O-butyl/gaussian->(c4_c1h2o1@me)|ph-O-butyl
pair_coeff     4    11       10576.399       3.1746032       377.27092       2.7176691      0.61998309    # buck6d->(c3_c2h1@ph)|benzene/gaussian->(c3_c3@ph)|Zn4O_benz <--> buck6d->(o4_zn4@zn4o)|Zn4O_benz/gaussian->(o4_zn4@zn4o)|Zn4O_benz
pair_coeff     4    12       10576.399       3.1746032       377.27092       2.7176691       0.6199956    # buck6d->(c3_c2h1@ph)|benzene/gaussian->(c3_c3@ph)|Zn4O_benz <--> buck6d->(o2_c2@eth)|ph-O-butyl/gaussian->(o2_c2@eth)|ph-O-butyl
pair_coeff     4    13       10576.399       3.1746032       377.27092       2.7176691      0.61998309    # buck6d->(c3_c2h1@ph)|benzene/gaussian->(c3_c3@ph)|Zn4O_benz <--> buck6d->(o2_c1zn1@co2)|Zn4O_benz/gaussian->(o2_c1zn1@co2)|Zn4O_benz
pair_coeff     5     5           10304       3.0612245       457.17971       4.5218516      0.60800971    # buck6d->(c3_c2h1@ph)|benzene/gaussian->(c3_c2h1@ph)|benzene <--> buck6d->(c3_c2h1@ph)|benzene/gaussian->(c3_c2h1@ph)|benzene
pair_coeff     5     6           10304       3.0612245       457.17971       4.5218516      0.60800971    # buck6d->(c3_c2h1@ph)|benzene/gaussian->(c3_c2h1@ph)|benzene <--> buck6d->(c3_c2o1@ph)|ph-O-butyl/gaussian->(c3_c2o1@ph)|ph-O-butyl
pair_coeff     5     7           10304       3.0769231       443.36171       4.2093581      0.60800605    # buck6d->(c3_c2h1@ph)|benzene/gaussian->(c3_c2h1@ph)|benzene <--> buck6d->(c3_c1o2@co2)|Zn4O_benz/gaussian->(c3_c1o2@co2)|Zn4O_benz
pair_coeff     5     8       7154.7377               3       358.35904               6      0.60800971    # buck6d->(c3_c2h1@ph)|benzene/gaussian->(c3_c2h1@ph)|benzene <--> buck6d->(c4_c2h2@me)|butane/gaussian->(c4_c2h2@me)|butane
pair_coeff     5     9       7154.7377               3       358.35904               6      0.60800971    # buck6d->(c3_c2h1@ph)|benzene/gaussian->(c3_c2h1@ph)|benzene <--> buck6d->(c4_c1h3@me)|butane/gaussian->(c4_c1h3@me)|butane
pair_coeff     5    10       7154.7377               3       358.35904               6      0.60800971    # buck6d->(c3_c2h1@ph)|benzene/gaussian->(c3_c2h1@ph)|benzene <--> buck6d->(c4_c1h2o1@me)|ph-O-butyl/gaussian->(c4_c1h2o1@me)|ph-O-butyl
pair_coeff     5    11       10576.399       3.1746032       377.27092       2.7176691      0.61998697    # buck6d->(c3_c2h1@ph)|benzene/gaussian->(c3_c2h1@ph)|benzene <--> buck6d->(o4_zn4@zn4o)|Zn4O_benz/gaussian->(o4_zn4@zn4o)|Zn4O_benz
pair_coeff     5    12       10576.399       3.1746032       377.27092       2.7176691      0.61999948    # buck6d->(c3_c2h1@ph)|benzene/gaussian->(c3_c2h1@ph)|benzene <--> buck6d->(o2_c2@eth)|ph-O-butyl/gaussian->(o2_c2@eth)|ph-O-butyl
pair_coeff     5    13       10576.399       3.1746032       377.27092       2.7176691      0.61998697    # buck6d->(c3_c2h1@ph)|benzene/gaussian->(c3_c2h1@ph)|benzene <--> buck6d->(o2_c1zn1@co2)|Zn4O_benz/gaussian->(o2_c1zn1@co2)|Zn4O_benz
pair_coeff     6     6           10304       3.0612245       457.17971       4.5218516      0.60800971    # buck6d->(c3_c2o1@ph)|ph-O-butyl/gaussian->(c3_c2o1@ph)|ph-O-butyl <--> buck6d->(c3_c2o1@ph)|ph-O-butyl/gaussian->(c3_c2o1@ph)|ph-O-butyl
pair_coeff     6     7           10304       3.0769231       443.36171       4.2093581      0.60800605    # buck6d->(c3_c2o1@ph)|ph-O-butyl/gaussian->(c3_c2o1@ph)|ph-O-butyl <--> buck6d->(c3_c1o2@co2)|Zn4O_benz/gaussian->(c3_c1o2@co2)|Zn4O_benz
pair_coeff     6     8       7154.7377               3       358.35904               6      0.60800971    # buck6d->(c3_c2o1@ph)|ph-O-butyl/gaussian->(c3_c2o1@ph)|ph-O-butyl <--> buck6d->(c4_c2h2@me)|butane/gaussian->(c4_c2h2@me)|butane
pair_coeff     6     9       7154.7377               3       358.35904               6      0.60800971    # buck6d->(c3_c2o1@ph)|ph-O-butyl/gaussian->(c3_c2o1@ph)|ph-O-butyl <--> buck6d->(c4_c1h3@me)|butane/gaussian->(c4_c1h3@me)|butane
pair_coeff     6    10       7154.7377               3       358.35904               6      0.60800971    # buck6d->(c3_c2o1@ph)|ph-O-butyl/gaussian->(c3_c2o1@ph)|ph-O-butyl <--> buck6d->(c4_c1h2o1@me)|ph-O-butyl/gaussian->(c4_c1h2o1@me)|ph-O-butyl
pair_coeff     6    11       10576.399       3.1746032       377.27092       2.7176691      0.61998697    # buck6d->(c3_c2o1@ph)|ph-O-butyl/gaussian->(c3_c2o1@ph)|ph-O-butyl <--> buck6d->(o4_zn4@zn4o)|Zn4O_benz/gaussian->(o4_zn4@zn4o)|Zn4O_benz
pair_coeff     6    12       10576.399       3.1746032       377.27092       2.7176691      0.61999948    # buck6d->(c3_c2o1@ph)|ph-O-butyl/gaussian->(c3_c2o1@ph)|ph-O-butyl <--> buck6d->(o2_c2@eth)|ph-O-butyl/gaussian->(o2_c2@eth)|ph-O-butyl
pair_coeff     6    13       10576.399       3.1746032       377.27092       2.7176691      0.61998697    # buck6d->(c3_c2o1@ph)|ph-O-butyl/gaussian->(c3_c2o1@ph)|ph-O-butyl <--> buck6d->(o2_c1zn1@co2)|Zn4O_benz/gaussian->(o2_c1zn1@co2)|Zn4O_benz
pair_coeff     7     7           10304       3.0927835       429.89352       3.9170177      0.60800239    # buck6d->(c3_c1o2@co2)|Zn4O_benz/gaussian->(c3_c1o2@co2)|Zn4O_benz <--> buck6d->(c3_c1o2@co2)|Zn4O_benz/gaussian->(c3_c1o2@co2)|Zn4O_benz
pair_coeff     7     8       7154.7377       3.0150754       347.74176       5.5933807      0.60800605    # buck6d->(c3_c1o2@co2)|Zn4O_benz/gaussian->(c3_c1o2@co2)|Zn4O_benz <--> buck6d->(c4_c2h2@me)|butane/gaussian->(c4_c2h2@me)|butane
pair_coeff     7     9       7154.7377       3.0150754       347.74176       5.5933807      0.60800605    # buck6d->(c3_c1o2@co2)|Zn4O_benz/gaussian->(c3_c1o2@co2)|Zn4O_benz <--> buck6d->(c4_c1h3@me)|butane/gaussian->(c4_c1h3@me)|butane
pair_coeff     7    10       7154.7377       3.0150754       347.74176       5.5933807      0.60800605    # buck6d->(c3_c1o2@co2)|Zn4O_benz/gaussian->(c3_c1o2@co2)|Zn4O_benz <--> buck6d->(c4_c1h2o1@me)|ph-O-butyl/gaussian->(c4_c1h2o1@me)|ph-O-butyl
pair_coeff     7    11       10576.399       3.1914894       365.45138       2.5231391      0.61998309    # buck6d->(c3_c1o2@co2)|Zn4O_benz/gaussian->(c3_c1o2@co2)|Zn4O_benz <--> buck6d->(o4_zn4@zn4o)|Zn4O_benz/gaussian->(o4_zn4@zn4o)|Zn4O_benz
pair_coeff     7    12       10576.399       3.1914894       365.45138       2.5231391       0.6199956    # buck6d->(c3_c1o2@co2)|Zn4O_benz/gaussian->(c3_c1o2@co2)|Zn4O_benz <--> buck6d->(o2_c2@eth)|ph-O-butyl/gaussian->(o2_c2@eth)|ph-O-butyl
pair_coeff     7    13       10576.399       3.1914894       365.45138       2.5231391      0.61998309    # buck6d->(c3_c1o2@co2)|Zn4O_benz/gaussian->(c3_c1o2@co2)|Zn4O_benz <--> buck6d->(o2_c1zn1@co2)|Zn4O_benz/gaussian->(o2_c1zn1@co2)|Zn4O_benz
pair_coeff     8     8            4968       2.9411765       280.22525       7.9168726      0.60800971    # buck6d->(c4_c2h2@me)|butane/gaussian->(c4_c2h2@me)|butane <--> buck6d->(c4_c2h2@me)|butane/gaussian->(c4_c2h2@me)|butane
pair_coeff     8     9            4968       2.9411765       280.22525       7.9168726      0.60800971    # buck6d->(c4_c2h2@me)|butane/gaussian->(c4_c2h2@me)|butane <--> buck6d->(c4_c1h3@me)|butane/gaussian->(c4_c1h3@me)|butane
pair_coeff     8    10            4968       2.9411765       280.22525       7.9168726      0.60800971    # buck6d->(c4_c2h2@me)|butane/gaussian->(c4_c2h2@me)|butane <--> buck6d->(c4_c1h2o1@me)|ph-O-butyl/gaussian->(c4_c1h2o1@me)|ph-O-butyl
pair_coeff     8    11       7343.8824       3.1088083       297.03952       3.6436247      0.61998697    # buck6d->(c4_c2h2@me)|butane/gaussian->(c4_c2h2@me)|butane <--> buck6d->(o4_zn4@zn4o)|Zn4O_benz/gaussian->(o4_zn4@zn4o)|Zn4O_benz
pair_coeff     8    12       7343.8824       3.1088083       297.03952       3.6436247      0.61999948    # buck6d->(c4_c2h2@me)|butane/gaussian->(c4_c2h2@me)|butane <--> buck6d->(o2_c2@eth)|ph-O-butyl/gaussian->(o2_c2@eth)|ph-O-butyl
pair_coeff     8    13       7343.8824       3.1088083       297.03952       3.6436247      0.61998697    # buck6d->(c4_c2h2@me)|butane/gaussian->(c4_c2h2@me)|butane <--> buck6d->(o2_c1zn1@co2)|Zn4O_benz/gaussian->(o2_c1zn1@co2)|Zn4O_benz
pair_coeff     9     9            4968       2.9411765       280.22525       7.9168726      0.60800971    # buck6d->(c4_c1h3@me)|butane/gaussian->(c4_c1h3@me)|butane <--> buck6d->(c4_c1h3@me)|butane/gaussian->(c4_c1h3@me)|butane
pair_coeff     9    10            4968       2.9411765       280.22525       7.9168726      0.60800971    # buck6d->(c4_c1h3@me)|butane/gaussian->(c4_c1h3@me)|butane <--> buck6d->(c4_c1h2o1@me)|ph-O-butyl/gaussian->(c4_c1h2o1@me)|ph-O-butyl
pair_coeff     9    11       7343.8824       3.1088083       297.03952       3.6436247      0.61998697    # buck6d->(c4_c1h3@me)|butane/gaussian->(c4_c1h3@me)|butane <--> buck6d->(o4_zn4@zn4o)|Zn4O_benz/gaussian->(o4_zn4@zn4o)|Zn4O_benz
pair_coeff     9    12       7343.8824       3.1088083       297.03952       3.6436247      0.61999948    # buck6d->(c4_c1h3@me)|butane/gaussian->(c4_c1h3@me)|butane <--> buck6d->(o2_c2@eth)|ph-O-butyl/gaussian->(o2_c2@eth)|ph-O-butyl
pair_coeff     9    13       7343.8824       3.1088083       297.03952       3.6436247      0.61998697    # buck6d->(c4_c1h3@me)|butane/gaussian->(c4_c1h3@me)|butane <--> buck6d->(o2_c1zn1@co2)|Zn4O_benz/gaussian->(o2_c1zn1@co2)|Zn4O_benz
pair_coeff    10    10            4968       2.9411765       280.22525       7.9168726      0.60800971    # buck6d->(c4_c1h2o1@me)|ph-O-butyl/gaussian->(c4_c1h2o1@me)|ph-O-butyl <--> buck6d->(c4_c1h2o1@me)|ph-O-butyl/gaussian->(c4_c1h2o1@me)|ph-O-butyl
pair_coeff    10    11       7343.8824       3.1088083       297.03952       3.6436247      0.61998697    # buck6d->(c4_c1h2o1@me)|ph-O-butyl/gaussian->(c4_c1h2o1@me)|ph-O-butyl <--> buck6d->(o4_zn4@zn4o)|Zn4O_benz/gaussian->(o4_zn4@zn4o)|Zn4O_benz
pair_coeff    10    12       7343.8824       3.1088083       297.03952       3.6436247      0.61999948    # buck6d->(c4_c1h2o1@me)|ph-O-butyl/gaussian->(c4_c1h2o1@me)|ph-O-butyl <--> buck6d->(o2_c2@eth)|ph-O-butyl/gaussian->(o2_c2@eth)|ph-O-butyl
pair_coeff    10    13       7343.8824       3.1088083       297.03952       3.6436247      0.61998697    # buck6d->(c4_c1h2o1@me)|ph-O-butyl/gaussian->(c4_c1h2o1@me)|ph-O-butyl <--> buck6d->(o2_c1zn1@co2)|Zn4O_benz/gaussian->(o2_c1zn1@co2)|Zn4O_benz
pair_coeff    11    11           10856       3.2967033        308.7755       1.6022517      0.63270113    # buck6d->(o4_zn4@zn4o)|Zn4O_benz/gaussian->(o4_zn4@zn4o)|Zn4O_benz <--> buck6d->(o4_zn4@zn4o)|Zn4O_benz/gaussian->(o4_zn4@zn4o)|Zn4O_benz
pair_coeff    11    12           10856       3.2967033        308.7755       1.6022517      0.63271443    # buck6d->(o4_zn4@zn4o)|Zn4O_benz/gaussian->(o4_zn4@zn4o)|Zn4O_benz <--> buck6d->(o2_c2@eth)|ph-O-butyl/gaussian->(o2_c2@eth)|ph-O-butyl
pair_coeff    11    13           10856       3.2967033        308.7755       1.6022517      0.63270113    # buck6d->(o4_zn4@zn4o)|Zn4O_benz/gaussian->(o4_zn4@zn4o)|Zn4O_benz <--> buck6d->(o2_c1zn1@co2)|Zn4O_benz/gaussian->(o2_c1zn1@co2)|Zn4O_benz
pair_coeff    12    12           10856       3.2967033        308.7755       1.6022517      0.63272774    # buck6d->(o2_c2@eth)|ph-O-butyl/gaussian->(o2_c2@eth)|ph-O-butyl <--> buck6d->(o2_c2@eth)|ph-O-butyl/gaussian->(o2_c2@eth)|ph-O-butyl
pair_coeff    12    13           10856       3.2967033        308.7755       1.6022517      0.63271443    # buck6d->(o2_c2@eth)|ph-O-butyl/gaussian->(o2_c2@eth)|ph-O-butyl <--> buck6d->(o2_c1zn1@co2)|Zn4O_benz/gaussian->(o2_c1zn1@co2)|Zn4O_benz
pair_coeff    13    13           10856       3.2967033        308.7755       1.6022517      0.63270113    # buck6d->(o2_c1zn1@co2)|Zn4O_benz/gaussian->(o2_c1zn1@co2)|Zn4O_benz <--> buck6d->(o2_c1zn1@co2)|Zn4O_benz/gaussian->(o2_c1zn1@co2)|Zn4O_benz

bond_style hybrid class2 morse harmonic

bond_coeff    13 class2     1.529408   314.283599  -801.423177  1192.116976    # mm3->(c4_c2h2@me,c4_c2h2@me)|butane
bond_coeff     8 class2     1.394074   455.360160 -1161.168407  1727.238006    # mm3->(c3_c2h1@ph,c3_c2o1@ph)|ph-O-butyl
bond_coeff     4 class2     1.101213   365.915223  -933.083819  1387.962181    # mm3->(c4_c2h2@me,h1_c1@me)|butane
bond_coeff     9 class2     1.488000   355.167780  -905.677839  1347.195786    # mm3->(c3_c1o2@co2,c3_c3@ph)|Zn4O_benz
bond_coeff     3 class2     1.094000   390.634200  -996.117210  1481.724350    # mm3->(c3_c2h1@ph,h1_c1@ph)|benzene
bond_coeff     5 class2     1.099390   374.841138  -955.844901  1421.819290    # mm3->(c4_c1h3@me,h1_c1@me)|butane
bond_coeff    10 class2     1.357631   390.806068  -996.555472  1482.376265    # mm3->(c3_c2o1@ph,o2_c2@eth)|ph-O-butyl
bond_coeff     1 morse    50.000000    1.463685     1.987000    # morse->(o4_zn4@zn4o,zn4_o4@zn4o)|Zn4O_benz
bond_coeff    12 class2     1.515294   290.719566  -741.334894  1102.735655    # mm3->(c4_c1h2o1@me,c4_c2h2@me)|ph-O-butyl
bond_coeff     6 class2     1.101119   356.182160  -908.264508  1351.043455    # mm3->(c4_c1h2o1@me,h1_c1@me)|ph-O-butyl
bond_coeff     7 class2     1.394000   509.335200 -1298.804760  1931.972080    # mm3->(c3_c2h1@ph,c3_c2h1@ph)|benzene
bond_coeff    15 class2     1.427071   299.914044  -764.780811  1137.611457    # mm3->(c4_c1h2o1@me,o2_c2@eth)|ph-O-butyl
bond_coeff    14 class2     1.529182   318.631885  -812.511306  1208.610568    # mm3->(c4_c1h3@me,c4_c2h2@me)|butane
bond_coeff     2 morse    50.000000    1.547773     1.917000    # morse->(o2_c1zn1@co2,zn4_o4@zn4o)|Zn4O_benz
bond_coeff    11 class2     1.275000   620.986080 -1583.514504  2355.477825    # mm3->(c3_c1o2@co2,o2_c1zn1@co2)|Zn4O_benz

angle_style hybrid class2/p6 cosine/buck6d

angle_coeff    26 class2/p6      113.257375    69.461048   -55.717548    12.769521    -9.145496    16.468519    # mm3->(c3_c2o1@ph,o2_c2@eth,c4_c1h2o1@me)|ph-O-butyl
angle_coeff    26 class2/p6 bb 0.0 1.0 1.0
angle_coeff    26 class2/p6 ba 0.0 0.0 1.0 1.0
angle_coeff    27 class2/p6      135.606000     6.762360    -5.424366     1.243173    -0.890357     1.603288    # mm3->(c3_c1o2@co2,o2_c1zn1@co2,zn4_o4@zn4o)|Zn4O_benz
angle_coeff    27 class2/p6 bb 0.0 1.0 1.0
angle_coeff    27 class2/p6 ba 0.0 0.0 1.0 1.0
angle_coeff    21 class2/p6      116.818943    25.946625   -20.812849     4.769954    -3.416228     6.151685    # mm3->(h1_c1@me,c4_c1h2o1@me,o2_c2@eth)|ph-O-butyl
angle_coeff    21 class2/p6 bb 0.0 1.0 1.0
angle_coeff    21 class2/p6 ba 0.0 0.0 1.0 1.0
angle_coeff     4 class2/p6      117.296000    57.983640   -46.511050    10.659547    -7.634339    13.747340    # mm3->(c3_c1o2@co2,c3_c3@ph,c3_c2h1@ph)|Zn4O_benz
angle_coeff     4 class2/p6 bb 0.0 1.0 1.0
angle_coeff     4 class2/p6 ba 0.0 0.0 1.0 1.0
angle_coeff     6 class2/p6      120.350000    36.185820   -29.026127     6.652298    -4.764358     8.579296    # mm3->(c3_c2h1@ph,c3_c2h1@ph,h1_c1@ph)|benzene
angle_coeff     6 class2/p6 bb    93.378120     1.394000     1.094000
angle_coeff     6 class2/p6 ba   -25.179000    53.523360     1.394000     1.094000
angle_coeff     1 class2/p6      113.584000     0.000000    -0.000000     0.000000    -0.000000     0.000000    # mm3->(o2_c1zn1@co2,zn4_o4@zn4o,o4_zn4@zn4o)|Zn4O_benz
angle_coeff     1 class2/p6 bb     0.000000     1.917000     1.987000
angle_coeff     1 class2/p6 ba     0.000000     0.000000     1.917000     1.987000
angle_coeff    20 class2/p6      118.378973    29.889438   -23.975541     5.494789    -3.935353     7.086487    # mm3->(c4_c2h2@me,c4_c1h2o1@me,h1_c1@me)|ph-O-butyl
angle_coeff    20 class2/p6 bb 0.0 1.0 1.0
angle_coeff    20 class2/p6 ba 0.0 0.0 1.0 1.0
angle_coeff    24 class2/p6      113.161464    65.779678   -52.764571    12.092749    -8.660793    15.595703    # mm3->(c4_c1h3@me,c4_c2h2@me,c4_c2h2@me)|butane
angle_coeff    24 class2/p6 bb 0.0 1.0 1.0
angle_coeff    24 class2/p6 ba 0.0 0.0 1.0 1.0
angle_coeff    11 class2/p6      123.006000   111.866700   -89.732857    20.565256   -14.728780    26.522474    # mm3->(o2_c1zn1@co2,c3_c1o2@co2,o2_c1zn1@co2)|Zn4O_benz
angle_coeff    11 class2/p6 bb 0.0 1.0 1.0
angle_coeff    11 class2/p6 ba 0.0 0.0 1.0 1.0
angle_coeff    23 class2/p6      110.602540    44.106999   -35.380028     8.108505    -5.807289    10.457328    # mm3->(c4_c1h3@me,c4_c2h2@me,h1_c1@me)|butane
angle_coeff    23 class2/p6 bb 0.0 1.0 1.0
angle_coeff    23 class2/p6 ba 0.0 0.0 1.0 1.0
angle_coeff    13 class2/p6      110.342401    30.766657   -24.679194     5.656055    -4.050851     7.294466    # mm3->(c4_c1h2o1@me,c4_c2h2@me,h1_c1@me)|ph-O-butyl
angle_coeff    13 class2/p6 bb 0.0 1.0 1.0
angle_coeff    13 class2/p6 ba 0.0 0.0 1.0 1.0
angle_coeff     7 class2/p6      117.983314    23.459678   -18.817967     4.312760    -3.088787     5.562055    # mm3->(c3_c2o1@ph,c3_c2h1@ph,h1_c1@ph)|ph-O-butyl
angle_coeff     7 class2/p6 bb 0.0 1.0 1.0
angle_coeff     7 class2/p6 ba 0.0 0.0 1.0 1.0
angle_coeff    16 class2/p6      113.161464    65.779678   -52.764571    12.092749    -8.660793    15.595703    # mm3->(c4_c2h2@me,c4_c2h2@me,c4_c2h2@me)|butane
angle_coeff    16 class2/p6 bb 0.0 1.0 1.0
angle_coeff    16 class2/p6 ba 0.0 0.0 1.0 1.0
angle_coeff    19 class2/p6      114.761173    31.409569   -25.194901     5.774246    -4.135499     7.446894    # mm3->(h1_c1@me,c4_c1h2o1@me,h1_c1@me)|ph-O-butyl
angle_coeff    19 class2/p6 bb 0.0 1.0 1.0
angle_coeff    19 class2/p6 ba 0.0 0.0 1.0 1.0
angle_coeff    25 class2/p6      103.992000    50.214120   -40.278800     9.231221    -6.611375    11.905265    # mm3->(zn4_o4@zn4o,o4_zn4@zn4o,zn4_o4@zn4o)|Zn4O_benz
angle_coeff    25 class2/p6 bb     7.625640     1.987000     1.987000
angle_coeff    25 class2/p6 ba    18.416640    18.416640     1.987000     1.987000
angle_coeff    10 class2/p6      116.368000    77.191620   -61.918557    14.190688   -10.163332    18.301360    # mm3->(c3_c3@ph,c3_c1o2@co2,o2_c1zn1@co2)|Zn4O_benz
angle_coeff    10 class2/p6 bb 0.0 1.0 1.0
angle_coeff    10 class2/p6 ba 0.0 0.0 1.0 1.0
angle_coeff    14 class2/p6      110.134130    42.675831   -34.232030     7.845403    -5.618856    10.118012    # mm3->(c4_c2h2@me,c4_c2h2@me,h1_c1@me)|butane
angle_coeff    14 class2/p6 bb 0.0 1.0 1.0
angle_coeff    14 class2/p6 ba 0.0 0.0 1.0 1.0
angle_coeff     2 class2/p6      123.103000     5.755200    -4.616481     1.058020    -0.757751     1.364500    # mm3->(o2_c1zn1@co2,zn4_o4@zn4o,o2_c1zn1@co2)|Zn4O_benz
angle_coeff     2 class2/p6 bb 0.0 1.0 1.0
angle_coeff     2 class2/p6 ba 0.0 0.0 1.0 1.0
angle_coeff     9 class2/p6      144.582528    30.574828   -24.525320     5.620789    -4.025594     7.248986    # mm3->(c3_c2h1@ph,c3_c2o1@ph,c3_c2h1@ph)|ph-O-butyl
angle_coeff     9 class2/p6 bb 0.0 1.0 1.0
angle_coeff     9 class2/p6 ba 0.0 0.0 1.0 1.0
angle_coeff    17 class2/p6      107.691286    37.470927   -30.056964     6.888549    -4.933560     8.883982    # mm3->(h1_c1@me,c4_c1h3@me,h1_c1@me)|butane
angle_coeff    17 class2/p6 bb 0.0 1.0 1.0
angle_coeff    17 class2/p6 ba 0.0 0.0 1.0 1.0
angle_coeff    12 class2/p6      107.271015    38.858990   -31.170386     7.143726    -5.116317     9.213077    # mm3->(h1_c1@me,c4_c2h2@me,h1_c1@me)|butane
angle_coeff    12 class2/p6 bb 0.0 1.0 1.0
angle_coeff    12 class2/p6 ba 0.0 0.0 1.0 1.0
angle_coeff     5 class2/p6      117.296000    57.983640   -46.511050    10.659547    -7.634339    13.747340    # mm3->(c3_c1o2@co2,c3_c3@ph,c3_c2o1@ph)|Zn4O_benz
angle_coeff     5 class2/p6 bb 0.0 1.0 1.0
angle_coeff     5 class2/p6 ba 0.0 0.0 1.0 1.0
angle_coeff    18 class2/p6      110.959949    44.958991   -36.063446     8.265133    -5.919465    10.659326    # mm3->(c4_c2h2@me,c4_c1h3@me,h1_c1@me)|butane
angle_coeff    18 class2/p6 bb 0.0 1.0 1.0
angle_coeff    18 class2/p6 ba 0.0 0.0 1.0 1.0
angle_coeff     8 class2/p6      159.969859     8.440703    -6.770633     1.551715    -1.111334     2.001206    # mm3->(c3_c2h1@ph,c3_c2o1@ph,o2_c2@eth)|ph-O-butyl
angle_coeff     8 class2/p6 bb 0.0 1.0 1.0
angle_coeff     8 class2/p6 ba 0.0 0.0 1.0 1.0
angle_coeff     3 class2/p6      126.007089    47.182599   -37.847093     8.673915    -6.212234    11.186522    # mm3->(c3_c2h1@ph,c3_c2h1@ph,c3_c2o1@ph)|ph-O-butyl
angle_coeff     3 class2/p6 bb 0.0 1.0 1.0
angle_coeff     3 class2/p6 ba 0.0 0.0 1.0 1.0
angle_coeff    15 class2/p6      113.161464    65.779678   -52.764571    12.092749    -8.660793    15.595703    # mm3->(c4_c1h2o1@me,c4_c2h2@me,c4_c2h2@me)|butane
angle_coeff    15 class2/p6 bb 0.0 1.0 1.0
angle_coeff    15 class2/p6 ba 0.0 0.0 1.0 1.0
angle_coeff    22 class2/p6      114.447479    32.354254   -25.952671     5.947914    -4.259880     7.670870    # mm3->(c4_c2h2@me,c4_c1h2o1@me,o2_c2@eth)|ph-O-butyl
angle_coeff    22 class2/p6 bb 0.0 1.0 1.0
angle_coeff    22 class2/p6 ba 0.0 0.0 1.0 1.0

dihedral_style opls

dihedral_coeff     5     0.000000     5.972000     0.000000     0.000000    # cos3->(c3_c2o1@ph,c3_c2h1@ph,c3_c2h1@ph,c3_c2o1@ph)|ph-O-butyl
dihedral_coeff    18     0.000000     3.012000     0.000000     0.000000    # cos3->(c3_c3@ph,c3_c1o2@co2,o2_c1zn1@co2,zn4_o4@zn4o)|Zn4O_benz
dihedral_coeff    19     0.000000     0.076000     0.000000     0.000000    # cos3->(o2_c1zn1@co2,c3_c1o2@co2,o2_c1zn1@co2,zn4_o4@zn4o)|Zn4O_benz
dihedral_coeff     9     0.000000     5.972000     0.000000     0.000000    # cos3->(c3_c2h1@ph,c3_c2o1@ph,c3_c2h1@ph,c3_c2h1@ph)|ph-O-butyl
dihedral_coeff     7     0.000000     0.000000     0.000000     0.000000    # cos3->(c3_c2o1@ph,c3_c2h1@ph,c3_c3@ph,c3_c1o2@co2)|Zn4O_benz
dihedral_coeff    33     0.000000     0.000000     0.010079     0.000000    # cos3->(h1_c1@me,c4_c1h2o1@me,o2_c2@eth,c3_c2o1@ph)|ph-O-butyl
dihedral_coeff    25     0.000000     0.000000    -0.052641     0.000000    # cos3->(c4_c2h2@me,c4_c2h2@me,c4_c2h2@me,h1_c1@me)|butane
dihedral_coeff    14     0.000000     5.117273     0.000000     0.000000    # cos3->(h1_c1@ph,c3_c2h1@ph,c3_c2o1@ph,c3_c2h1@ph)|ph-O-butyl
dihedral_coeff    21     0.000000     0.000000     0.514450     0.000000    # cos3->(o2_c2@eth,c4_c1h2o1@me,c4_c2h2@me,h1_c1@me)|ph-O-butyl
dihedral_coeff    10     0.000000     5.000000     0.000000     0.000000    # cos3->(c3_c1o2@co2,c3_c2h1@ph,c3_c2o1@ph,o2_c2@eth)|co2-ph-o-me
dihedral_coeff     8     0.000000     6.281542     0.000000     0.000000    # cos3->(c3_c2h1@ph,c3_c2h1@ph,c3_c2o1@ph,o2_c2@eth)|ph-O-prop
dihedral_coeff    30    -0.370853    -0.236138     1.970124     0.000000    # cos3->(c4_c2h2@me,c4_c2h2@me,c4_c2h2@me,c4_c2h2@me)|butane
dihedral_coeff    11     0.000000     0.000000     0.000000     0.000000    # cos3->(c3_c2h1@ph,c3_c2o1@ph,c3_c3@ph,c3_c1o2@co2)|Zn4O_benz
dihedral_coeff    34     0.803729    -0.768357     1.298183     0.000000    # cos3->(c4_c2h2@me,c4_c1h2o1@me,o2_c2@eth,c3_c2o1@ph)|ph-O-butyl
dihedral_coeff    32     0.000000     0.000000     0.870477     0.000000    # cos3->(h1_c1@me,c4_c1h3@me,c4_c2h2@me,c4_c2h2@me)|butane
dihedral_coeff    31     0.000000     0.000000     0.343076     0.000000    # cos3->(h1_c1@me,c4_c1h3@me,c4_c2h2@me,h1_c1@me)|butane
dihedral_coeff    16     0.000000     3.664689     0.000000     0.000000    # cos3->(c3_c2h1@ph,c3_c2h1@ph,c3_c2o1@ph,c3_c2h1@ph)|ph-O-butyl
dihedral_coeff    13     0.000000     1.902000     0.000000     0.000000    # cos3->(o2_c1zn1@co2,c3_c1o2@co2,c3_c3@ph,c3_c2o1@ph)|Zn4O_benz
dihedral_coeff    24     0.000000     0.000000     0.302052     0.000000    # cos3->(h1_c1@me,c4_c2h2@me,c4_c2h2@me,h1_c1@me)|butane
dihedral_coeff    23    -1.702642    -0.327922     0.811155     0.000000    # cos3->(o2_c2@eth,c4_c1h2o1@me,c4_c2h2@me,c4_c2h2@me)|ph-O-butyl
dihedral_coeff    28     0.000000     0.000000    -0.052641     0.000000    # cos3->(c4_c1h3@me,c4_c2h2@me,c4_c2h2@me,h1_c1@me)|butane
dihedral_coeff     4     0.000000     6.045595     0.000000     0.000000    # cos3->(c3_c2o1@ph,c3_c2h1@ph,c3_c2h1@ph,h1_c1@ph)|ph-O-butyl
dihedral_coeff    27    -0.370853    -0.236138     1.970124     0.000000    # cos3->(c4_c1h2o1@me,c4_c2h2@me,c4_c2h2@me,c4_c2h2@me)|butane
dihedral_coeff     6     0.000000     0.000000     0.000000     0.000000    # cos3->(h1_c1@ph,c3_c2h1@ph,c3_c3@ph,c3_c1o2@co2)|Zn4O_benz
dihedral_coeff    15     0.000000     3.982172     0.000000     0.000000    # cos3->(h1_c1@ph,c3_c2h1@ph,c3_c2o1@ph,o2_c2@eth)|ph-O-butyl
dihedral_coeff     1     0.000000     0.000000     0.000000     0.000000    # cos3->(zn4_o4@zn4o,o4_zn4@zn4o,zn4_o4@zn4o,o2_c1zn1@co2)|Zn4O_benz
dihedral_coeff     3     0.000000     0.000000     0.000000     0.000000    # cos3->(c3_c1o2@co2,o2_c1zn1@co2,zn4_o4@zn4o,o2_c1zn1@co2)|Zn4O_benz
dihedral_coeff    26     0.000000     0.000000    -0.052641     0.000000    # cos3->(c4_c1h2o1@me,c4_c2h2@me,c4_c2h2@me,h1_c1@me)|butane
dihedral_coeff     2     0.000000     0.000000     0.000000     0.000000    # cos3->(c3_c1o2@co2,o2_c1zn1@co2,zn4_o4@zn4o,o4_zn4@zn4o)|Zn4O_benz
dihedral_coeff    17     4.763804     2.750105     0.191432     0.000000    # cos3->(c3_c2h1@ph,c3_c2o1@ph,o2_c2@eth,c4_c1h2o1@me)|ph-O-butyl
dihedral_coeff    20     0.000000     0.000000     0.037991     0.000000    # cos3->(h1_c1@me,c4_c1h2o1@me,c4_c2h2@me,h1_c1@me)|ph-O-butyl
dihedral_coeff    29    -0.370853    -0.236138     1.970124     0.000000    # cos3->(c4_c1h3@me,c4_c2h2@me,c4_c2h2@me,c4_c2h2@me)|butane
dihedral_coeff    12     0.000000     1.902000     0.000000     0.000000    # cos3->(o2_c1zn1@co2,c3_c1o2@co2,c3_c3@ph,c3_c2h1@ph)|Zn4O_benz
dihedral_coeff    22     0.000000     0.000000     0.343642     0.000000    # cos3->(h1_c1@me,c4_c1h2o1@me,c4_c2h2@me,c4_c2h2@me)|ph-O-butyl

improper_style inversion/harmonic

improper_coeff     2     3.563253     0.000000    # harm->(c3_c2h1@ph,c3_c2h1@ph,c3_c2o1@ph,h1_c1@ph)|ph-O-butyl
improper_coeff     4    40.574160     0.000000    # harm->(c3_c1o2@co2,c3_c3@ph,o2_c1zn1@co2,o2_c1zn1@co2)|Zn4O_benz
improper_coeff     3     0.000000     0.000000    # harm->(c3_c2o1@ph,c3_c2h1@ph,c3_c2h1@ph,o2_c2@eth)|ph-O-butyl
improper_coeff     1     0.000000     0.000000    # harm->(c3_c2h1@ph,c3_c1o2@co2,c3_c2h1@ph,c3_c2o1@ph)|xxx

special_bonds lj 0.00 0.00 1.00 coul 1.00 1.00 1.00
Finding 1-2 1-3 1-4 neighbors ...
  special bond factors lj:    0        0        1       
  special bond factors coul:  1        1        1       
     4 = max # of 1-2 neighbors
    12 = max # of 1-3 neighbors
    22 = max # of special neighbors
  special bonds CPU = 0.001 seconds

# ------------------------ MOF-FF FORCE FIELD END --------------------------


change_box all  triclinic
Changing box ...
  triclinic box = (0.0000000 0.0000000 0.0000000) to (51.703312 51.703314 51.703314) with tilt (0.0000000 0.0000000 0.0000000)
kspace_style pppm      1e-06
# ------------------------ MOF-FF FORCE FIELD END --------------------------


min_style		cg
minimize		0.0 1.0e-8 1000 10000
WARNING: Using 'neigh_modify every 1 delay 0 check yes' setting during minimization (../min.cpp:188)
PPPM initialization ...
  using 12-bit tables for long-range coulomb (../kspace.cpp:340)
  G vector (1/distance) = 0.26486809
  grid = 45 45 45
  stencil order = 5
  estimated absolute RMS force accuracy = 0.00036676798
  estimated relative force accuracy = 1.1045109e-06
  using double precision FFTW3
  3d grid and FFT values/proc = 7308 1932
Neighbor list info ...
  update every 1 steps, delay 0 steps, check yes
  max neighbors/atom: 2000, page size: 100000
  master list distance cutoff = 14
  ghost atom cutoff = 14
  binsize = 7, bins = 8 8 8
  1 neighbor lists, perpetual/occasional/extra = 1 0 0
  (1) pair buck6d/coul/gauss/long, perpetual
      attributes: half, newton on
      pair build: half/bin/newton/tri
      stencil: half/bin/3d/tri
      bin: standard
WARNING: Inconsistent image flags (../domain.cpp:814)
Per MPI rank memory allocation (min/avg/max) = 23.62 | 23.96 | 24.27 Mbytes
Step Temp E_pair E_mol TotEng Press 
       0            0   -124222.96    31561.498   -92661.464   -24856.481 
    1000            0   -124708.06    15062.674   -109645.39    27.961505 
Loop time of 46.7038 on 56 procs for 1000 steps with 11840 atoms

98.3% CPU use with 56 MPI tasks x no OpenMP threads

Minimization stats:
  Stopping criterion = max iterations
  Energy initial, next-to-last, final = 
     -92661.4644705915  -109645.390155538  -109645.390465142
  Force two-norm initial, final = 6687.3986 0.78513901
  Force max component initial, final = 216.40464 0.049558549
  Final line search alpha, max atom move = 0.39221513 0.019437613
  Iterations, force evaluations = 1000 1998

MPI task timing breakdown:
Section |  min time  |  avg time  |  max time  |%varavg| %total
---------------------------------------------------------------
Pair    | 34.163     | 38.457     | 42.256     |  35.9 | 82.34
Bond    | 0.90486    | 1.128      | 1.3333     |  12.3 |  2.42
Kspace  | 2.6084     | 6.6252     | 11.158     |  90.8 | 14.19
Neigh   | 0.01921    | 0.01923    | 0.019263   |   0.0 |  0.04
Comm    | 0.35743    | 0.39541    | 0.44258    |   4.5 |  0.85
Output  | 4.5061e-05 | 4.6394e-05 | 7.2002e-05 |   0.0 |  0.00
Modify  | 0          | 0          | 0          |   0.0 |  0.00
Other   |            | 0.07869    |            |       |  0.17

Nlocal:        211.429 ave         229 max         188 min
Histogram: 4 4 0 8 8 8 4 4 4 12
Nghost:        6676.66 ave        6776 max        6511 min
Histogram: 4 0 0 0 16 4 4 16 4 8
Neighs:        103866.0 ave      113666 max       92113 min
Histogram: 4 4 4 4 8 12 0 4 8 8

Total # of neighbors = 5816482
Ave neighs/atom = 491.25693
Ave special neighs/atom = 6.1405405
Neighbor list builds = 3
Dangerous builds = 0

velocity     	all create 330 3204550 dist gaussian mom yes rot no

#-----------------------------------------------------------------------------
variable        N      equal step
variable        T      equal temp
variable		R		equal 0.00198722
variable		sysvol		equal vol
variable		sysmass		equal mass(all)/6.0221367e+23
variable		sysdensity	equal v_sysmass/v_sysvol/1.0e-24
variable		coulomb		equal ecoul+elong
variable		etotal		equal etotal
variable		pe		equal pe
variable		ke		equal ke
variable		evdwl		equal evdwl
variable		epair		equal epair
variable		ebond		equal ebond
variable		eangle		equal eangle
variable		edihed		equal edihed
variable		eimp		equal eimp
variable		lx		equal lx
variable		ly		equal ly
variable		lz		equal lz
variable		Nthermo		equal 0
variable		cella		equal lx
variable		cellb		equal sqrt(ly*ly+xy*xy)
variable		cellc		equal sqrt(lz*lz+xz*xz+yz*yz)
variable		cellalpha	equal acos((xy*xz+ly*yz)/(v_cellb*v_cellc))
variable		cellbeta	equal acos(xz/v_cellc)
variable		cellgamma	equal acos(xy/v_cellb)
variable		p		equal press
variable		pxx		equal pxx
variable		pyy		equal pyy
variable		pzz		equal pzz
variable		pyz		equal pyz
variable		pxz		equal pxz
variable		pxy		equal pxy
variable		sxx		equal -pxx
variable		syy		equal -pyy
variable		szz		equal -pzz
variable		syz		equal -pyz
variable		sxz		equal -pxz
variable		sxy		equal -pxy
variable		enthalpy    equal enthalpy
variable		fmax		equal fmax
variable	        fnorm		equal fnorm
variable		time equal step*dt+0.000001
variable		surfacetension equal 0.5*v_lz*(0.5*(v_sxx+v_syy)-v_szz)


#-------------------------------------------------------------------------------
timestep	    1
thermo_style custom step evdwl ebond eangle edihed eimp pe ke etotal temp press vol v_coulomb enthalpy spcpu
thermo 1000
variable        TEMP        equal 330

fix             1 all npt temp  ${TEMP} ${TEMP} 100  tri  0 0 1000
fix             1 all npt temp  330 ${TEMP} 100  tri  0 0 1000
fix             1 all npt temp  330 330 100  tri  0 0 1000
run		500000
PPPM initialization ...
  using 12-bit tables for long-range coulomb (../kspace.cpp:340)
  G vector (1/distance) = 0.26486809
  grid = 45 45 45
  stencil order = 5
  estimated absolute RMS force accuracy = 0.00036676798
  estimated relative force accuracy = 1.1045109e-06
  using double precision FFTW3
  3d grid and FFT values/proc = 7308 1932
WARNING: Inconsistent image flags (../domain.cpp:814)
Per MPI rank memory allocation (min/avg/max) = 22.54 | 22.94 | 23.16 Mbytes
Step E_vdwl E_bond E_angle E_dihed E_impro PotEng KinEng TotEng Temp Press Volume v_coulomb Enthalpy S/CPU 
    1000   -2580.4643    324.66518    11583.289    3149.4206    5.2991618   -109645.39    11645.637   -97999.753          330    3879.5598    138214.98    -122127.6   -90179.632            0 
    2000   -1768.3596    4904.6474    17066.365    4243.6194    138.46884   -97344.722    11980.415   -85364.307    339.48654   -297.79753    137231.86   -121929.46   -85960.314    41.202899 
    3000    -1809.334    4747.9182    16824.915    4209.8636     160.3515   -97800.957    11341.806   -86459.151    321.39038    219.45595    135933.07   -121934.67   -86024.092     40.98913 
    4000   -1827.4575    4849.0091    16954.444    4289.2382     160.8456   -97536.021    11753.771   -85782.249    333.06417    645.40552    135545.24    -121962.1   -84506.419    40.898057 
    5000    -1911.878    4777.7532    16901.927    4375.6522    164.55338   -97658.263     11531.13   -86127.132    326.75524    -368.1242     134400.5   -121966.27    -86848.69    40.895887 
    6000   -1897.7133    4864.5578    16912.814    4334.4062    157.79256   -97653.039    11580.735   -86072.304    328.16089   -851.73259    133706.29    -122024.9   -87733.156    40.274934 
    7000   -1929.3355    4781.4114    16832.777    4299.1393    168.82563   -97792.112    11758.502   -86033.609    333.19824    340.56522    132879.79   -121944.93   -85373.623    40.150528 
    8000   -1960.6846    4778.7515     16837.03    4395.8619    163.13969   -97749.812    11702.658   -86047.154    331.61578   -113.36537    133063.43   -121963.91    -86267.15    39.891097 
    9000   -1893.7336    4804.2618    16838.343    4383.7591    159.05073   -97680.612    11570.756   -86109.855    327.87811   -806.98659    133027.17   -121972.29   -87675.462    39.929794 
   10000   -1950.4468    4848.8682    16858.352    4412.0029    156.56054   -97654.419    11624.209   -86030.209     329.3928   -873.48946     133093.7   -121979.76   -87725.683    39.534516 
   11000   -1930.1598    4887.5863    16789.004    4462.5198    170.94017   -97621.486    11672.143   -85949.343    330.75108   -78.757406    132356.66   -122001.38   -86101.367    39.381153 
   12000   -1883.6418    4739.2475    16868.764     4440.857    155.30068   -97640.668    11530.601   -86110.067    326.74025   -255.27694    132273.25    -121961.2   -86602.514    39.720413 
   13000   -1958.4459    4833.8417    16844.975    4453.2572    166.28837   -97664.172    11617.784   -86046.387    329.21074   -852.61224    132883.92   -122004.09   -87698.729    39.644376 
   14000   -1920.9872    4890.6612    16904.412    4459.7222    151.59063   -97471.673    11712.948   -85758.726    331.90735   -616.09564    132897.03   -121957.07   -86952.822    39.380688 
   15000   -1913.5026    4695.9987    16739.792    4515.1342    146.21642   -97805.212    11775.917   -86029.295    333.69171    1017.4564    132410.96   -121988.85   -84064.507    39.708454 
   16000   -1945.9256     4671.796    16732.812    4429.9592    152.88623   -97922.721    11609.725   -86312.997    328.98235    834.42715    132989.67   -121964.25    -84694.61    39.808194 
   17000   -1939.9915    4809.7651    16807.862     4503.929    163.14428   -97588.464    11631.495   -85956.969    329.59926   -847.62334    133090.09   -121933.17    -87602.19    40.001583 
   18000   -1913.5218    4822.9286    16714.021    4457.2266    156.95159   -97743.436    11569.359   -86174.077    327.83852   -257.32254    132842.85   -121981.04   -86672.608    39.557087 
   19000   -1922.1298    4855.4384     16895.84    4426.0163    159.57598   -97571.515    11825.072   -85746.442    335.08462    508.38846    132673.47   -121986.26   -84762.758    39.515396 
   20000   -1943.7269      4783.82    16781.072    4470.7218     164.8611    -97696.69    11552.401   -86144.289    327.35799    -329.0181    133450.28   -121953.44   -86784.636    39.123929 
   21000    -1919.706    4761.5192    16863.433      4495.35    160.93506   -97595.709    11702.848   -85892.861    331.62116   -209.03694    132541.42   -121957.24   -86296.926    40.085934 
   22000   -1954.0305    4791.4155    16796.465    4447.8308    148.17574   -97741.966    11709.697   -86032.269    331.81524   -233.96696    132331.19   -121971.82   -86483.805    39.434464 
   23000   -1905.1165    4727.3528    16770.709    4437.8027    163.86572   -97780.734    11574.637   -86206.096    327.98809    739.21658    133091.26   -121975.35   -84771.277    39.708656 
   24000   -1909.1744    4686.9311    16818.292    4476.1918    151.43498   -97777.112    11797.079   -85980.033    334.29138    761.72444    132191.17   -122000.79   -84511.525    39.717545 
   25000   -1960.9162    4786.5773    16775.268    4480.8842    163.76369   -97745.932    11599.622   -86146.309    328.69608   -964.70017    132471.91   -121991.51   -88010.078     39.23174 
   26000   -1884.8962    4860.7655    16767.606    4478.6609    172.74846   -97619.803     11671.83   -85947.973    330.74222    50.315589    132956.12   -122014.69    -85850.41    39.441389 
   27000   -1844.1895    4783.4231    16819.905    4445.2395    160.10977   -97617.973    11733.758   -85884.215    332.49705    958.42354       132570   -121982.46   -84031.201    39.359491 
   28000   -1871.5982    4781.6619    16819.056    4507.5103    160.26674   -97607.575    11494.537   -86113.038    325.71831    -239.3506    132665.66   -122004.47   -86576.131    39.028987 
   29000   -1896.6931    4728.1778    16875.545    4395.2279    151.93158   -97701.336    11692.076   -86009.259    331.31593    530.68727    132514.27   -121955.52   -84983.661    39.727859 
   30000   -1912.5818    4746.1774    16789.936    4442.5641    159.06469   -97716.746    11690.769   -86025.978    331.27888   -247.99077    132754.33   -121941.91   -86506.109    39.829847 
   31000   -1880.9022    4718.1997    16661.201    4501.9101    159.96746   -97849.942    11671.621   -86178.321    330.73631    396.04556       132442   -122010.32   -85413.346    39.208128 
   32000   -1874.2648    4758.6507    16858.703    4455.8081    152.45421   -97596.264    11561.853    -86034.41    327.62583    -391.2487    132923.29   -121947.61   -86792.865    39.052375 
   33000   -1888.7414    4816.0907    16900.514    4460.2686    161.35507   -97563.058    11767.751   -85795.307     333.4603   -587.82577    132734.77   -122012.54    -86933.22    39.605287 
   34000   -1878.8722    4777.0299    16936.551    4464.9046    164.38376   -97543.303    11493.191   -86050.112    325.68015    -643.7398    132655.93    -122007.3   -87295.524    39.262318 
   35000   -1909.5783    4752.5527    16773.502    4463.8268    158.42224    -97779.13    11508.679   -86270.452    326.11903   -160.71724    132619.46   -122017.86   -86581.298    39.130994 
   36000   -1895.5431    4796.1961    16804.759    4441.0216    150.13173    -97671.36    11605.858   -86065.502    328.87279   -29.892111    133099.65   -121967.92   -86123.526    39.946652 
   37000   -1872.1931    4819.5828     16992.56    4487.5822    162.38131   -97427.091    11666.669   -85760.423    330.59596    1094.6141    132448.12      -122017   -83646.044    39.654525 
   38000   -1918.3288    4796.7541    16819.121    4490.8902    156.27289   -97645.599    11601.274   -86044.325    328.74288   -499.63082    133045.88   -121990.31   -87013.778     39.13749 
   39000   -1933.0421    4781.2543    16767.596    4451.1923    149.55168   -97788.039    11515.079    -86272.96     326.3004     574.4148    132653.51   -122004.59   -85161.688     40.07816 
   40000   -1916.1924    4741.2503    16816.155    4465.3109    161.92297   -97724.407    11614.949   -86109.458     329.1304    14.727867    132955.04   -121992.85   -86080.901    39.627352 
   41000   -1901.1678    4849.1225    16892.585    4477.8473    153.96884   -97542.067    11640.934   -85901.133    329.86672   -925.89215     132934.6   -122014.42   -87696.173    39.176368 
   42000   -1877.7524    4743.1282     16760.92    4428.8533    137.84248   -97807.552     11684.79   -86122.762    331.10946    506.48238    132442.44   -122000.54   -85144.472    39.501251 
   43000   -1946.3977    4803.9047     16711.74    4544.7371    169.79901   -97750.365    11658.904   -86091.461    330.37594    449.44218    132905.54   -122034.15   -85220.312    40.064263 
   44000   -1879.1986     4837.597    16815.602    4474.0482    169.60906   -97561.773     11693.86   -85867.913    331.36648   -110.03119    132916.41   -121979.43   -86081.203     39.99274 
   45000   -1866.4455    4604.6878     16748.01     4418.286    141.93008   -97917.111    11642.238   -86274.873    329.90367    2443.4813    132727.72   -121963.58   -81545.032    39.752806 
   46000   -1915.8645    4925.4492    16831.381    4510.9767    159.63403   -97507.854     11547.26   -85960.594     327.2123   -753.93849    133472.85   -122019.43   -87428.184    39.634584 
   47000   -1940.7377    4824.7101    16884.953    4494.2159    159.61668   -97575.628    11493.397   -86082.232    325.68598   -512.45641    132993.36   -121998.39   -87076.178    39.193049 
   48000   -1969.4769    4714.7669    16840.598    4513.7178    160.91032   -97733.572    11567.957   -86165.615    327.79877    142.40495    132481.94   -121994.09   -85890.473    39.736439 
   49000   -1862.9228    4773.9708    16906.283     4515.521    159.31429   -97485.654    11458.574   -86027.079    324.69924    51.644476    132817.67   -121977.82   -85927.043    39.881165 
   50000   -1854.3234    4721.3588    16835.193     4506.668     150.9129   -97687.937    11662.929   -86025.009    330.48998     1633.837    132537.93   -122047.75   -82866.916    39.318672 
   51000   -1883.6418    4769.8461    16853.809    4502.4787    166.51269   -97564.861    11818.868   -85745.993     334.9088   -234.07879    133225.93   -121973.86   -86200.799     38.91831 
   52000    -1856.039    4779.3072    16749.653    4484.6579    154.26471   -97694.728    11749.932   -85944.796    332.95538    158.06415    133401.63   -122006.57   -85637.278    39.147047 
   53000    -1921.698    4735.6272    16769.668    4533.8877    154.59195   -97651.251    11417.943   -86233.308    323.54788    241.86695    132875.06   -121923.33   -85764.607    40.421945 
   54000   -1878.1807     4747.762     16851.18    4456.7246    153.86362   -97622.074    11564.013   -86058.061    327.68703   -1008.2719    133266.21   -121953.42   -88017.689     40.23146 
   55000   -1873.1865    4805.7965    16816.923    4456.1085    154.82379   -97634.605     11710.46   -85924.145    331.83687   -724.59384    133164.22   -121995.07   -87331.352    39.627376 
   56000   -1871.0642    4720.1909    16781.093    4480.8114    168.85488   -97699.352      11620.1   -86079.253    329.27634     906.7843    132074.98   -121979.24   -84332.625    39.617964 
   57000   -1869.7932    4748.3253    16789.591    4495.5225    139.04711   -97738.686    11605.581   -86133.104    328.86494    967.96258    133072.69   -122041.38   -84254.551    40.334505 
   58000   -1872.3587    4874.0703     16843.46    4467.3989    142.43919   -97516.046    11597.028   -85919.019    328.62256   -540.10187    133188.19   -121971.06    -86968.12    40.010827 
   59000   -1909.8689    4685.0949     16703.21    4514.9995    157.03561   -97861.843    11449.118   -86412.725    324.43127   -151.85932    132476.49   -122012.31   -86706.123    39.788557 
   60000   -1843.3687    4807.1043        16932    4508.8422    161.50334   -97455.159    11715.682   -85739.478    331.98483    265.35703    133094.75   -122021.24   -85224.406    39.597971 
   61000   -1895.8712    4754.0652    16858.385    4410.7296    166.06472    -97653.54     11603.39   -86050.149    328.80285    499.61421    133213.03   -121946.91   -85079.511    38.909888 
   62000   -1845.1009     4861.928      16863.5    4433.6312    159.03226   -97513.168    11717.722   -85795.446    332.04265   -1165.0093    133723.96   -121986.16   -88067.478    39.172421 
   63000    -1889.462    4928.5269    16779.005    4448.3425    156.54126   -97578.838    11655.223   -85923.614    330.27164   -117.27962    133064.94   -122001.79   -86151.209    39.527524 
   64000   -1952.1612    4746.3073    16826.545    4498.9098     155.2529   -97700.257     11497.37   -86202.887    325.79858    337.01905    132859.49   -121975.11   -85549.872    39.841377 
   65000   -1899.6994    4786.4991    16903.999    4497.7122    156.69141   -97560.264     11684.53   -85875.734    331.10209    82.815624    132707.78   -122005.47   -85715.452    38.820668 
   66000   -1894.7253    4585.5712    16835.159    4536.5014    154.11209   -97723.786     11688.86   -86034.926    331.22478    -267.6709    132976.57    -121940.4   -86554.027    39.816505 
   67000   -1839.6165    4752.4891    16881.255    4469.5404    146.74953   -97579.458    11612.237   -85967.221    329.05354    71.763166    132725.56   -121989.88   -85828.312    39.282505 
   68000   -1835.9083    4704.0633    16844.731    4479.1403    162.22504   -97632.645     11803.09   -85829.556    334.46169   -296.95051    132965.38    -121986.9   -86405.391    39.870978 
   69000   -1824.2176    4706.1414    16847.526    4415.7483    146.37563   -97704.167    11675.594   -86028.573    330.84888   -429.70426    133485.62   -121995.74     -86865.1     39.37567 
   70000    -1904.993    4756.3395    16741.448    4428.5266    147.62439   -97787.384    11660.633   -86126.751    330.42493   -650.20978     133297.3   -121956.33   -87390.762    39.108035 
   71000   -1827.6781     4856.488    16718.437    4522.6594    152.13852   -97610.631    11671.873   -85938.757    330.74344      143.888    133355.77   -122032.68   -85658.916    39.389952 
   72000   -1846.4109    4779.9214    16766.196     4418.525    153.85023   -97693.006    11452.595   -86240.411     324.5298   -290.26387    132604.78   -121965.09   -86801.753    39.921564 
   73000   -1825.7599    4824.7449    16882.138    4533.2819    165.85324   -97406.312    11566.494   -85839.819    327.75732    -73.30354    133783.91   -121986.57   -85982.841    39.915664 
   74000   -1838.1822     4703.667    16844.986    4491.7028    157.95486   -97641.496    11678.418   -85963.077    330.92891    5.6106648    133357.39   -122001.62   -85952.165    40.096649 
   75000   -1823.5715    4783.6967    16750.454    4500.7583    155.62565   -97636.992    11492.268   -86144.723    325.65401    504.55659    133018.77   -122003.96   -85165.913    39.438136 
   76000   -1875.5975    4705.8931     16760.32    4494.2599    160.43794   -97735.303     11792.54   -85942.763    334.16275    329.19039    133442.95   -121980.62   -85302.116    39.594629 
   77000   -1830.7468    4796.0809    16745.042    4408.6382    166.17386   -97701.071    11709.872   -85991.198    331.82022     406.1623    132784.67   -121986.26   -85204.654    40.134526 
   78000   -1862.2817    4806.2896    16863.336    4526.2836    162.21923   -97510.208    11650.966   -85859.242      330.151    86.759151    132466.79   -122006.06   -85691.633    39.107799 
   79000   -1817.8504    4737.0309    16806.722    4451.2214    167.28136   -97644.545    11622.072   -86022.473    329.33224   -347.49177    132685.21   -121988.95   -86694.897     39.66134 
   80000   -1827.2699    4684.2819    16684.994    4409.0322     166.9594   -97849.793    11621.674   -86228.119    329.32095   -41.441544    132893.15   -121967.79   -86308.438    39.882934 
   81000   -1849.3152    4886.7867    16925.881    4405.7022    167.83359   -97480.927     11463.12   -86017.807    324.82804   -1156.8228    133472.51   -122017.82   -88269.632    39.336658 
   82000   -1907.0932     4775.161    16861.766    4461.4081    159.92369   -97621.747    11703.279   -85918.468    331.63338   -48.329845    132605.79   -121972.91   -86011.934    39.242747 
   83000   -1901.4233    4740.3214    16902.421    4505.1127    145.55469   -97609.414     11698.12   -85911.294     331.4872   -15.672819    132609.81    -122001.4   -85941.605    39.222954 
   84000   -1902.7691      4749.68    16858.833    4443.9001    165.54911   -97710.153    11526.702    -86183.45    326.62976    -140.3368    132717.46   -122025.35   -86455.079    38.904843 
   85000   -1832.0938    4757.3161    16889.619    4436.4488    159.09477   -97560.808    11579.671   -85981.137    328.13072    1031.5417    132826.66   -121971.19   -83982.896    39.772021 
   86000   -1944.9698    4784.0308    16831.564    4427.8232    143.40821   -97754.745    11614.895    -86139.85    329.12885   -718.90172    133374.94    -121996.6   -87538.212    39.998421 
   87000   -1871.7506     4780.106    16856.463    4440.0523    156.58692   -97601.414    11754.989   -85846.426    333.09867    231.47939     132779.3   -121962.87   -85398.177     39.28442 
   88000   -1835.2452    4823.0486    16745.749    4471.9321    168.18404   -97643.401    11775.492   -85867.908    333.67968   -491.92968    132720.22   -122017.07   -86820.082    39.811114 
   89000   -1821.9653    4747.6346    16929.719    4501.6121    147.61713   -97511.193    11524.587   -85986.606    326.56981   -147.03145    132975.43   -122015.81   -86271.745    39.423452 
   90000   -1881.9487    4666.9467    16839.893    4467.1135    175.64319   -97735.809    11635.841   -86099.969    329.72239    537.21586    132954.98   -122003.46   -85058.301    39.415624 
   91000   -1901.4436    4720.3145    16939.094    4438.0663    145.86412   -97674.422    11661.411    -86013.01    330.44699    406.00763    132785.18   -122016.32   -85226.762     39.51484 
   92000   -1831.5668    4746.3906    16782.277    4462.3827    153.66632    -97658.87    11552.179   -86106.691     327.3517    999.50984    132685.41   -121972.02   -84172.559    39.682705 
   93000   -1832.9864    4832.2938    16763.245    4477.0713    167.19653   -97569.899    11582.431   -85987.468    328.20893    17.607641    133508.02   -121976.72   -85953.185    40.130556 
   94000   -1877.1475    4837.5541    16826.567    4387.3862    169.42358   -97644.558    11747.992   -85896.566     332.9004    -560.3543    133433.16   -121988.34   -86987.008    39.523064 
   95000   -1816.3502    4789.6276    16696.555    4409.3091    165.49952   -97732.667    11602.133   -86130.533    328.76724   -259.64957    132795.62   -121977.31   -86633.393    39.868129 
   96000   -1880.2459     4779.714    16877.188    4454.9602    155.04192   -97566.864    11634.874    -85931.99      329.695    382.95384    133443.99   -121953.52   -85186.707    39.851914 
   97000   -1821.0686    4720.5271    16706.462    4435.9595    139.72117   -97766.958    11666.175   -86100.784    330.58197   -221.25206    133182.76   -121948.56   -86530.529      40.2933 
   98000   -1821.1705    4859.6564    16762.804     4473.432     142.5393   -97618.704    11714.764    -85903.94    331.95882    796.38746    133094.16   -122035.97   -84358.118    40.240877 
   99000   -1869.3536    4810.4011    16929.388    4447.2426    159.43817   -97492.179    11495.654   -85996.525    325.74995   -1452.6153    133729.56    -121969.3   -88829.573    40.102904 
  100000   -1904.8959    4924.5648    16686.621    4465.1331    149.33753   -97691.718    11770.071   -85921.646    333.52606    274.10758    133467.64   -122012.48   -85388.099     39.36817 
  101000   -1780.4077    4718.5987    16810.459    4460.3236    149.41589   -97648.342    11749.592    -85898.75    332.94573    670.80307    132767.64   -122006.73   -84599.888    39.950551 
  102000   -1811.4999    4645.0198     16834.71    4423.6678    165.60725   -97715.915    11459.719   -86256.196    324.73166   -723.64997     133490.1   -121973.42    -87665.01    40.118901 
  103000   -1782.5082    4709.0803    16842.884    4386.8834    169.33503    -97683.57    11572.289   -86111.281    327.92155    300.49267    133608.46   -122009.24   -85525.758    39.709532 
  104000   -1781.8595    4718.9698    16806.347    4391.4308    177.15686   -97683.042    11603.864   -86079.177    328.81628    197.52942    133008.84   -121995.09    -85696.01    39.486151 
  105000   -1836.0679     4665.604    16872.037    4475.6908    154.14043    -97633.45    11654.594   -85978.856     330.2538     786.3651     133081.6   -121964.85   -84452.632    40.023736 
  106000   -1876.6379    4684.7427    16845.822    4357.9908    154.96461   -97810.056    11734.272   -86075.784    332.51162    79.246041    133708.99   -121976.94   -85921.254     39.77002 
  107000    -1825.474    4803.5967    16802.028    4496.1086    174.99378   -97543.552    11607.798   -85935.754    328.92774    -130.2125    133201.98    -121994.8   -86188.707    40.096253 
  108000   -1847.4223    4847.7933    16824.724    4428.0098    156.03504   -97557.776    11600.077   -85957.699    328.70895    246.09407    133067.77   -121966.92   -85480.115    40.069431 
  109000   -1799.4069    4779.5852    16742.391    4490.0476    171.42583   -97576.225    11611.966   -85964.259    329.04585    921.07574     133380.5   -121960.27   -84172.566    39.248464 
  110000   -1853.6679    4791.5682    16715.731    4486.2679    167.54451   -97678.719    11586.877   -86091.842    328.33492    560.32134     133114.4   -121986.16    -85004.07    39.556932 
  111000   -1819.9908     4824.098    16827.277    4439.0946    155.74124   -97572.546    11508.136    -86064.41    326.10365    173.78311    132490.98   -121998.77   -85728.618    39.834004 
  112000   -1890.3746    4659.3733    16827.486    4561.3977    184.35531   -97646.854     11617.26   -86029.594    329.19587   -263.69802    132958.82   -121989.09   -86540.922    39.888564 
  113000   -1836.8059    4737.1615    16836.255    4441.3464    174.65286   -97645.164    11677.956   -85967.208    330.91582    352.58283    133023.96   -121997.77   -85283.191     39.52569 
  114000   -1834.9199    4875.4128    16859.962     4408.392    150.86491   -97532.758     11547.83   -85984.928    327.22844   -1159.8583     133655.9   -121992.47   -88245.764    40.013665 
  115000   -1809.3145     4810.732    16797.113     4461.237     144.7411   -97607.755    11678.307   -85929.448    330.92574    935.96756    132841.05   -122012.26   -84116.151    39.940339 
  116000   -1823.5761    4711.1545    16824.024    4424.7564    146.44587    -97706.62    11520.979   -86185.641    326.46758     -1287.68    133545.37   -121989.43   -88693.555    40.155156 
  117000   -1839.1918     4877.421    16810.264    4423.3737    147.07031   -97589.392    11709.985   -85879.408    331.82339     -37.5159       133677   -122008.33   -85952.546     40.38958 
  118000   -1783.1504    4822.3848    16710.663    4446.6803    147.18109   -97665.966    11808.402   -85857.564    334.61222    934.21638    133090.18   -122009.72   -84044.266    39.502906 
  119000   -1892.8996    4639.8952    16753.231    4491.3819    155.09192   -97829.456    11695.051   -86134.405    331.40023     942.2352    133547.35   -121976.16    -84299.26     39.75698 
  120000   -1776.4826    4814.8322    16795.338    4441.9029    156.47486   -97575.192    11713.404   -85861.788    331.92028   -53.742393     133646.2   -122007.26   -85966.537    39.683744 
  121000   -1888.1851     4720.947    16794.864    4509.2919    156.41736   -97673.687    11485.632   -86188.055    325.46595   -558.70995     132829.6   -121967.02   -87270.379    39.844112 
  122000    -1818.523    4783.1121    16818.835    4408.1298    143.57389   -97661.941    11800.891    -85861.05    334.39939    394.53901    133057.43   -121997.07   -85095.445    39.925371 
  123000   -1801.1951    4746.3232    16780.946    4486.6422     146.3927   -97616.427    11716.191   -85900.235    331.99928    296.60795    133336.66   -121975.54   -85323.458    39.048652 
  124000   -1782.8616    4842.1958    16730.194    4364.5727    153.87523   -97655.811    11544.739   -86111.072    327.14086   -87.615021    132832.52   -121963.79   -86280.802    39.444873 
  125000   -1842.2761    4892.3545    16837.638     4459.009    157.95549   -97500.755    11847.865   -85652.891    335.73047     -694.949    133429.17   -122005.44   -87005.211      39.7389 
  126000   -1822.1066    4700.6397    16774.607    4352.3621    159.94395   -97756.604    11691.473    -86065.13    331.29884    381.92493    133110.57   -121922.05   -85323.707    39.757299 
  127000   -1785.6141    4791.2463    16826.012    4396.0995    160.55571   -97591.503    11712.225   -85879.278    331.88689   -297.64905    133744.49    -121979.8    -86459.85    39.495784 
  128000   -1761.4349    4647.9837    16831.764    4379.6807    167.46835   -97682.619    11638.176   -86044.443    329.78856    679.72302     133123.7   -121948.08    -84724.78     39.99784 
  129000   -1842.8102     4740.719    16816.359     4438.507     163.1474   -97632.089    11655.537   -85976.552    330.28053    142.80704    132581.88   -121948.01   -85700.425    40.338563 
  130000   -1761.8842    4907.7851    16853.796      4361.82    190.04672    -97438.78    11566.631   -85872.149    327.76121   -473.28795    133489.69   -121990.34   -86793.551    39.913028 
  131000   -1852.3109    4788.1172    16761.799    4419.0043    172.53609   -97698.937    11497.806   -86201.131    325.81093    898.72994    133221.92   -121988.08   -84454.984    40.588585 
  132000   -1846.9215    4718.4351    16845.683    4521.3617    170.44861   -97576.297    11597.861   -85978.436    328.64617    523.70416    132879.59    -121985.3   -84963.543    39.719828 
  133000     -1848.84    4882.0983    16887.001     4475.583      172.453   -97469.349    11731.541   -85737.808    332.43423   -373.79568    133257.22   -122037.64    -86464.25    39.695212 
  134000    -1850.055     4733.463    16768.989    4419.7814    168.38513   -97749.761    11715.826   -86033.935    331.98893   -57.313548    132407.42   -121990.32   -86144.609    39.634539 
  135000   -1878.3186    4815.1096    16811.865    4466.3444    161.67024   -97622.386    11560.819   -86061.568    327.59651   -28.236446    132883.26   -121999.06   -86116.289    39.685474 
  136000   -1850.5241    4789.9054    16855.962    4416.0026    153.95229   -97630.846    11699.692   -85931.154    331.53173    168.29828    133119.92   -121996.14   -85604.417    39.416433 
  137000   -1813.9407    4759.3057    16864.693    4389.3362    149.42579   -97627.962    11512.931    -86115.03    326.23954   -40.325846     132593.6   -121976.78    -86193.01    39.583449 
  138000    -1891.368    4835.7802    16747.253    4417.7612    167.28417   -97716.364    11690.204    -86026.16    331.26286    415.83067    133071.41   -121993.07   -85219.153    40.136179 
  139000   -1861.2548    4753.9832    16841.866    4377.3278    152.89329   -97740.868    11638.864   -86102.004    329.80806    761.03559    132485.36   -122005.68    -84631.56    40.005673 
  140000   -1843.0008    4795.1281    16813.443     4406.949    148.77153   -97629.041    11617.827   -86011.214    329.21193    638.37505    132561.96   -121950.33   -84777.056    39.521204 
  141000   -1796.4951     4730.452    16877.548    4487.5342    154.70867    -97517.99     11616.44    -85901.55    329.17265   -894.72169    133127.93   -121971.74   -87638.683    40.141533 
  142000   -1791.5971    4717.5428    16794.254    4465.0529     161.8407   -97665.816    11731.581   -85934.235    332.43537    63.543888    133302.68   -122012.91     -85810.7    39.539574 
  143000   -1841.6008    4778.1783     16793.79    4461.3748    153.12881   -97653.327    11661.795   -85991.532    330.45786    338.43945    133002.55    -121998.2   -85335.059    39.517649 
  144000   -1829.2399    4729.1465    16819.584    4425.1815    164.77636   -97686.422    11646.012   -86040.411     330.0106    311.55399    132487.56   -121995.87   -85438.428    40.468294 
  145000   -1818.5509    4817.7285    16720.114    4411.3015    164.75017   -97725.045    11542.516   -86182.529    327.07786    -241.5333    132620.91   -122020.39   -86649.689    39.602554 
  146000   -1798.4046    4702.4066    16837.647    4376.1683    168.69072   -97644.565    11705.324   -85939.241    331.69134    336.39653     133357.9   -121931.07   -85284.987    40.034402 
  147000   -1829.5644    4763.1416     16755.83    4456.4251    173.94975   -97627.884    11657.151   -85970.733    330.32626   -1025.9358    133570.32   -121947.67   -87969.241    39.679172 
  148000   -1830.4601    4736.2861    16851.545    4363.2302    147.34964   -97678.983      11521.1   -86157.883    326.47101   -95.237318    132619.64   -121946.93   -86342.084    39.495272 
  149000   -1829.1478    4778.5845    16734.134    4392.6456    150.49706   -97747.501    11669.621    -86077.88    330.67962    650.23954    133187.89   -121974.21   -84814.849    38.985341 
  150000   -1777.9216    4842.0922    16788.846    4359.8407    173.51612   -97601.924    11558.974    -86042.95    327.54423   -283.13846    133279.41    -121988.3   -86593.298     38.96965 
  151000   -1869.5436    4663.9253    16879.653    4437.1925    170.15936   -97736.887    11525.329   -86211.558    326.59084   -14.215442    133531.27   -122018.27   -86239.242     39.58245 
  152000   -1864.4739    4787.8673    16792.087    4449.7995    172.37783   -97633.716    11684.395   -85949.321    331.09828    89.382599    132645.74   -121971.37    -85776.41    39.476038 
  153000   -1845.3986    4654.6603    16869.983     4453.371    150.81133   -97716.758    11722.937   -85993.821    332.19043    850.53553    132897.47   -122000.18   -84345.336    39.902231 
  154000   -1807.7251    4773.7199    16714.725    4474.1331    150.49472   -97607.594     11749.36   -85858.235    332.93915   -11.807081    133575.74   -121912.94   -85881.236    39.707215 
  155000    -1781.243    4802.8439    16741.213    4440.8665    146.22946   -97648.947    11582.858   -86066.089    328.22103    956.28292    133449.08   -121998.86   -84204.954    39.525514 
  156000   -1816.2834    4944.8179    16896.136    4431.6016    154.71304   -97369.652    11680.776   -85688.875    330.99573   -638.33295    133222.94   -121980.64   -86929.105    39.743031 
  157000   -1927.9966    4808.9306    16795.127    4541.5735    170.60239   -97617.321    11643.633   -85973.688     329.9432    67.957414    132950.72   -122005.56   -85841.922    39.778594 
  158000   -1854.1995     4744.797    16873.747    4464.9852    163.18194   -97595.188    11338.761   -86256.427     321.3041    79.986581    133597.42    -121987.7   -86100.583    40.125474 
  159000   -1822.5972    4808.8151    16766.039    4397.3336    160.15409    -97650.78    11668.732   -85982.047    330.65444   -116.81105    133289.88   -121960.52   -86209.116    39.955122 
  160000   -1802.4072    4864.3059    16719.667    4461.7087    168.16442   -97586.324    11717.733   -85868.591    332.04296    1121.4928    133178.13   -121997.76   -83690.353    39.454346 
  161000    -1802.234    4682.8941    16716.245    4429.0176    161.91401   -97784.704    11714.068   -86070.635    331.93912    682.13906    133627.14   -121972.54   -84741.272     39.80461 
  162000   -1835.4088    4850.1114    16807.464    4450.9609    149.05728   -97564.955    11560.772   -86004.183    327.59519   -579.94006     134084.9   -121987.14    -87138.25    39.527926 
  163000   -1773.6501    4845.9854    16815.857    4381.3295    155.45272   -97540.031    11661.337   -85878.694    330.44487    374.10294    133243.18   -121965.01   -85151.732    39.295478 
  164000    -1820.792    4873.7714    16620.112    4384.6789    151.15203   -97792.507    11706.786   -86085.721    331.73275    241.20899    132748.55   -122001.43    -85618.74    39.863099 
  165000   -1846.8364    4811.9802    16850.944    4471.2103    171.47255    -97523.06    11575.867   -85947.193    328.02293   -690.55211    133425.31   -121981.83   -87290.919    39.730238 
  166000   -1850.5858    4858.2869    16783.988    4429.1336       149.36   -97603.609    11563.308   -86040.301    327.66705   -446.27335    132823.75   -121973.79   -86904.776    40.041222 
  167000    -1783.596    4742.4092     16882.67    4394.3563    171.68179   -97562.652    11684.385   -85878.267    331.09799    534.89628    132873.91   -121970.17   -84841.729    39.353677 
  168000   -1865.6756    4679.7732    16929.439    4446.8859    154.64276   -97646.635     11629.37   -86017.265    329.53903    948.38548    132918.39    -121991.7   -84178.841     39.69049 
  169000    -1887.599    4750.7281    16769.465    4394.7059    160.74707   -97785.061    11547.909   -86237.152    327.23068   -185.74239    133238.65   -121973.11   -86598.077    39.959379 
  170000    -1865.919    4792.9049    16828.198    4435.9151    152.41644   -97622.829    11691.805   -85931.024    331.30825   -210.53927     132968.4   -121966.34   -86339.304    39.563057 
  171000   -1924.0736    4821.3716    16701.453    4414.8457    152.72109   -97849.825    11635.718   -86214.107    329.71892   -281.60933    132844.54   -122016.14   -86759.698     40.05549 
  172000   -1845.6596    4690.0793    16791.392    4459.7588    162.88857   -97728.145    11768.951   -85959.194    333.49432    276.34956    133194.82    -121986.6   -85422.382    39.631602 
  173000   -1846.1513    4726.0064    16843.732    4369.2531    171.85669   -97723.763    11546.229   -86177.534     327.1831    95.996485    132750.01   -121988.46   -85991.682    39.485848 
  174000   -1901.1204    4811.1881    16703.004    4459.7852    148.74944   -97806.688    11696.161   -86110.527    331.43168   -233.83973    132537.64   -122028.29   -86562.522    39.491155 
  175000   -1946.4216    4853.8323    16810.553    4526.2506    152.28918   -97576.215    11519.213   -86057.002    326.41754   -1849.8285    133242.33   -121972.72   -89651.594    39.165432 
  176000    -1891.645     4823.177    16778.662    4471.1747    171.20156   -97602.417    11740.172   -85862.245    332.67881   -550.37715    133505.57   -121954.99   -86933.853    39.725842 
  177000   -1894.1173     4853.957    16761.769    4448.6971    154.61747   -97636.216    11555.032   -86081.184    327.43252   -65.693824    132779.63   -121961.14   -86208.397    39.894809 
  178000   -1849.7814    4819.1095    16760.232     4462.537    169.52668   -97650.627    11531.553   -86119.075    326.76721   -280.09831     133000.9   -122012.25   -86662.376    39.496084 
  179000   -1855.0084     4777.517     16908.18    4430.5298    141.30914   -97544.377    11685.889   -85858.488     331.1406   -288.80839    133186.87    -121946.9   -86419.467    39.552501 
  180000   -1823.0584    4794.0077     16793.28    4377.3112    153.77563   -97671.486    11695.848   -85975.638    331.42282    701.23568    133079.48    -121966.8    -84614.66     39.79382 
  181000   -1834.7527    4883.7554    16793.833    4429.4181    166.99476   -97567.699     11549.54   -86018.159     327.2769   -166.71759    132838.85   -122006.95   -86341.144     40.08516 
  182000   -1834.8774     4852.131    16810.398    4385.9228    154.12914   -97639.131    11699.006   -85940.125    331.51231   -101.43012    133144.31   -122006.83   -86137.079    39.544129 
  183000   -1862.5891    4786.1572    16795.308    4346.5098    146.50802   -97787.728    11655.213   -86132.515    330.27134   -196.67575    132226.72   -121999.62   -86511.783    39.493658 
  184000   -1860.7647    4921.0937    16893.939    4359.2704    163.68705   -97483.348    11812.425   -85670.923    334.72623    218.68063    132323.07   -121960.57   -85248.914     39.83104 
  185000   -1901.9545    4832.9664    16890.829    4426.7056    149.80099   -97607.336    11580.333   -86027.002     328.1495   -863.99549    132971.02   -122005.68   -87702.502    40.285099 
  186000   -1883.7998     4808.877    16800.594    4363.3499    154.71987   -97721.802    11884.371   -85837.431    336.76494   -358.61377    132446.47   -121965.54   -86530.128    39.579218 
  187000   -1879.3555    4723.4136    16740.839    4365.9844    154.36838   -97847.677    11771.406    -86076.27    333.56389     -41.0377    132696.88   -121952.93   -86155.689    39.666298 
  188000   -1822.5053    4798.1028    16801.698    4405.6561    159.98502   -97642.964    11599.978   -86042.987    328.70615    465.64927    133579.56    -121985.9   -85135.845    39.437996 
  189000   -1858.7858    4870.0479    16833.594    4380.5009    151.45318   -97605.682    11600.375   -86005.307     328.7174   -192.03479    132343.78   -121982.49   -86375.953    39.163175 
  190000   -1876.4814    4782.1695     16822.87    4378.7206     150.4826   -97694.194    11719.441   -85974.753    332.09136    62.801428    133280.66   -121951.96   -85852.682    38.926869 
  191000   -1811.2693    4846.4794    16809.768    4398.7112    173.64258   -97555.679    11645.033   -85910.646    329.98287   -336.92771    133789.91   -121973.01   -86568.056    39.602215 
[...]
  909000   -1929.5946    4756.4616    16814.964    4533.4824    139.13149   -97656.957    11746.501   -85910.456    332.85816    1455.2741    128975.18    -121971.4   -83173.128    37.998916 
  910000   -1913.3873    4677.3777    16919.916    4485.8577    162.40869   -97627.738    11698.693   -85929.046    331.50342    2341.8775    128539.13   -121959.91   -81538.936    37.900901 
  911000   -1938.9223    4765.7583    16828.393    4501.5819    156.72774   -97709.881    11593.969   -86115.911     328.5359    2391.4586    128009.12   -122023.42   -81651.341    37.233236 
  912000   -1956.1528    4676.3425    16711.437    4538.2064    152.92038   -97858.382    11541.493   -86316.889    327.04889     1501.206    128998.88   -121981.14   -83492.645    37.617438 
  913000   -1919.0523    4763.6618    16842.135    4475.7315    161.57157   -97680.174    11713.858   -85966.316    331.93315    694.27004    129170.89   -122004.22   -84658.433    37.773322 
  914000    -1929.785    4719.1029    16852.175    4467.6676    165.81299   -97699.046     11773.83   -85925.217    333.63256     1915.367     129146.6   -121974.02   -82317.679     37.81074 
  915000   -1845.0373    4761.2009    16732.224    4490.1723    158.28833   -97711.237     11610.29   -86100.947    328.99837    2374.1664    129409.66   -122008.09   -81620.166     37.55757 
  916000   -1882.9569    4678.8377    16826.764    4529.0714    175.47342   -97640.533    11803.161   -85837.373     334.4637    1918.4384    129125.19   -121967.72   -82224.649     37.91608 
  917000   -1860.6341    4619.9286    16818.274    4488.6021    168.63174   -97755.825    11691.081   -86064.744    331.28772    2003.6976    128823.84   -121990.63    -82300.27    37.865741 
  918000   -1889.9251    4700.7858    16827.682    4464.1578    158.22135   -97654.049    11721.206   -85932.843    332.14137    1236.6924    129170.65   -121914.97   -83603.136    37.010572 
  919000   -1909.1642      4669.74    16862.036    4475.0853     156.2079   -97756.172    11670.746   -86085.426     330.7115    2230.3261    129336.43   -122010.08   -81878.498    38.133685 
  920000   -1931.6682      4586.78    16859.116    4490.3848     148.2615   -97819.172    11557.333   -86261.839    327.49773     1496.572    129000.85   -121972.05   -83446.271     38.34645 
  921000   -1852.8075    4718.9986    16838.666    4465.0972    140.13266   -97665.871    11672.074   -85993.797    330.74912    2316.6255    128682.87   -121975.96   -81646.168    37.565173 
  922000    -1942.245    4729.9386     16817.57    4464.6207    157.58844   -97731.551    11368.949   -86362.602    322.15954    796.31537    129199.55   -121959.02    -84862.15    37.775098 
  923000   -1880.1609    4739.0691    16738.756    4507.4882    168.20515   -97752.215    11728.962   -86023.253    332.36115    1755.6445     128763.4   -122025.57    -82726.36    37.695829 
  924000   -1883.2666     4751.702    16837.553    4515.4212    156.90924    -97586.22    11576.067   -86010.152    328.02861    1653.3155    129228.01   -121964.54   -82894.218    37.746425 
  925000   -1890.6985    4761.4914    16818.622    4483.9351    155.54579   -97652.113    11750.959   -85901.154    332.98448    1237.3907    129027.81   -121981.01   -83572.708    38.105433 
  926000    -1907.571    4677.3315    16702.551    4539.3335    167.91507   -97753.667     11629.11   -86124.557    329.53168    1382.6899    128694.75   -121933.23   -83529.412     37.67772 
  927000   -1972.9773    4722.6959    16679.444    4544.6085    173.02843   -97819.059    11579.533   -86239.526    328.12681    975.08177    128891.47   -121965.86   -84406.617    37.948296 
  928000   -1923.5965    4710.8191    16857.213    4559.4257    164.22619   -97613.465    11624.767   -85988.698     329.4086    1331.7743    128865.56   -121981.55   -83485.799    37.671594 
  929000   -1847.2264    4675.0401    16913.195    4447.6322    153.60654    -97661.68     11647.91    -86013.77    330.06441     2145.278     128854.9   -122003.93   -81982.328    37.654155 
  930000   -1919.5568    4585.8624     16888.28    4409.7519     166.7892   -97829.428     11618.33   -86211.097    329.22621    1034.4565     128930.6   -121960.55   -84265.987    37.885003 
  931000   -1908.2819    4612.8755    16939.323    4494.7846    158.08701   -97666.077    11632.837    -86033.24    329.63728     1568.707     128852.9   -121962.87   -83085.345    37.984852 
  932000   -1919.5693    4764.2466    16973.765    4494.7685    145.60938    -97535.48    11687.241   -85848.239    331.17892    1957.8214    128514.17    -121994.3   -82178.797    38.382662 
  933000   -1952.6267    4826.8906    16797.416    4482.6278     153.8181   -97653.258    11646.455   -86006.804    330.02316    897.29071    128571.25   -121961.38   -84324.312    37.933605 
  934000   -1878.7758    4751.8706    16844.375    4489.0968    156.70697   -97606.391    11542.103   -86064.288    327.06618    2221.8645    128662.17   -121969.67   -81895.169    37.672359 
  935000   -1857.8096    4720.3899    16788.542    4533.0155    168.81045    -97626.37    11619.533   -86006.837     329.2603    2255.9962     128395.7   -121979.32    -81782.44    37.235171 
  936000   -1863.0354    4656.9237    16767.958    4464.3076    167.28358   -97789.876    11658.301   -86131.575    330.35886     1195.781    128669.67   -121983.31   -83887.674    38.291568 
  937000   -1921.2257    4720.2318    16836.872    4424.5084    155.68367   -97777.011    11420.464   -86356.547    323.61931     591.0645    129648.35   -121993.08   -85238.969    38.233479 
  938000   -1898.7442    4708.4891    16764.384    4471.0291    147.07139   -97768.848    11670.054   -86098.795    330.69188    1265.8694    129165.76   -121961.08   -83714.213     38.45159 
  939000   -1887.6347    4686.4104    16859.345     4538.552    162.85404   -97643.972    11710.026   -85933.946    331.82456    2079.3582     128235.4    -122003.5   -82045.168    37.793056 
  940000   -1932.0956     4652.199    16894.639    4456.4696    150.33764   -97765.133    11636.908   -86128.224    329.75265    1799.2672    128572.19   -121986.68    -82754.43    38.174396 
  941000   -1860.2693    4790.3459    16890.687    4320.7531    161.33432   -97675.853    11584.051   -86091.803    328.25483    1244.8922    128969.55    -121978.7   -83750.299    38.044755 
  942000   -1926.5511    4664.5895    16836.384    4436.4911    185.76823   -97730.166     11711.89   -86018.276    331.87739    2394.7647    128446.65   -121926.85   -81532.253    37.794929 
  943000   -1985.0394    4629.4038    16811.114    4512.3391    160.23756   -97906.837    11601.299   -86305.539    328.74358    1584.8319    128823.62   -122034.89   -83328.019    38.064339 
  944000   -1911.6702    4674.4059    16889.423    4462.7061    168.37016   -97697.417     11621.39   -86076.027    329.31291    1239.2674     128455.5   -121980.65   -83754.394     38.24577 
  945000   -1972.4299    4757.6497    16860.498    4458.9038    144.93733   -97745.342    11712.077   -86033.266    331.88267    1353.1639    128541.59    -121994.9   -83496.561    37.766227 
  946000   -1902.5944    4647.4036    16802.042    4482.7996    167.45683   -97732.875    11498.007   -86234.868    325.81664     1827.814    128607.95   -121929.98   -82806.593    37.973029 
  947000   -1904.5736     4637.491    16930.067    4434.1596    154.24358   -97723.654    11638.384    -86085.27    329.79447    1224.3546    129134.93   -121975.04   -83779.442    37.896695 
  948000   -1926.3557    4769.9443    16858.804    4564.6828     156.8718   -97606.907    11680.349   -85926.558    330.98362    1624.9792    128357.27   -122030.85   -82884.663    37.979531 
  949000   -1888.2942    4696.4267    16811.935    4517.6303    176.99449   -97687.982    11644.846   -86043.135    329.97759     2306.826    129020.89   -122002.67   -81702.525    38.214736 
  950000   -1863.9946    4709.3878    16831.642    4483.9691    155.54138   -97673.872    11664.399   -86009.472    330.53166    2370.4135    128623.25   -121990.42    -81562.96    38.220458 
  951000   -1879.1484    4794.6702    16810.223    4523.6164    165.68915   -97620.461    11546.789   -86073.672    327.19896    873.70487    128614.33   -122035.51   -84434.857    38.536054 
  952000   -1939.4974    4661.7736    16792.166    4523.5827    155.44114   -97784.716    11817.026    -85967.69    334.85659    2900.3054    128642.76   -121978.18   -80526.362    37.803336 
  953000   -1892.1275    4663.7179    16836.928    4528.9987    168.68664   -97658.068    11427.459   -86230.609    323.81754    1556.4484    128780.09   -121964.27   -83307.403    38.137007 
  954000   -1935.6093    4729.0491    16822.488    4523.1224    159.84215   -97670.046    11765.944   -85904.102    333.40909    612.02134    128899.75   -121968.94   -84753.581    37.699326 
  955000    -1929.039    4772.9847    16905.845    4536.0381    173.57732   -97548.786    11686.658   -85862.128     331.1624    923.27437    128737.64   -122008.19   -84128.674    38.045346 
  956000   -1902.7621    4890.6953     16764.13    4540.1308    158.96913   -97578.742    11633.902    -85944.84    329.66745    177.23269    129447.69   -122029.91   -85610.249    38.434486 
  957000   -1905.7987    4652.4372     16859.13     4527.833    150.73999   -97692.675    11645.489   -86047.186     329.9958    2273.3284     127822.9   -121977.02   -81809.325    38.118051 
  958000   -1902.3874    4713.1391    16916.242    4472.9762    160.85342   -97580.384    11756.528   -85823.855    333.14229    2043.2355    128714.42   -121941.21    -81988.36    37.933603 
  959000   -1932.1997    4677.4833    16827.725    4474.1219    165.64926   -97781.905     11649.02   -86132.885    330.09585    659.51959    128895.71   -121994.68   -84893.113    38.091249 
  960000   -1909.6248     4775.978        16812    4511.8583    143.20505   -97633.826    11805.075   -85828.751    334.51796     1377.971    128903.71   -121967.24   -83238.264    37.921655 
  961000    -1891.961    4738.6987    16791.595    4565.5781    157.37691   -97604.773    11644.427   -85960.345    329.96571     1880.139    128723.62   -121966.06   -82430.757    38.070819 
  962000   -1841.9225    4780.9034    16848.391    4453.8073    164.29817   -97593.538     11745.31   -85848.228     332.8244    1543.5149    128522.03   -121999.02   -82955.123    37.920867 
  963000   -1948.0645     4726.488    16877.529    4532.9671    162.26048    -97605.23    11681.361   -85923.869     331.0123    1812.9045    128238.79   -121956.41   -82533.318    37.978967 
  964000   -1920.1281    4645.0287    16819.166    4444.8413    161.94881   -97841.762    11653.845   -86187.917    330.23258    835.79945    129235.76   -121992.62   -84612.627    38.348534 
  965000   -1915.2344    4739.0836    16906.398    4488.4974    154.09716   -97625.364    11850.227   -85775.138    335.79741     995.3656     128580.5   -121998.21   -83908.613     38.20664 
  966000   -1927.9586    4760.6264    16897.594    4498.7669    151.60495   -97648.277    11626.107    -86022.17    329.44657    1654.0812     129278.9   -122028.91   -82903.565    38.196401 
  967000   -1886.2015    4676.2315    16760.899    4547.6609    171.09523    -97692.95    11735.391    -85957.56    332.54332    1992.0381    128649.89   -121962.64   -82220.045    38.225591 
  968000   -1978.4422    4689.6863    16904.872    4536.2533    144.25442   -97729.821    11507.688   -86222.134    326.09094    1673.5507    128645.26   -122026.44   -83082.286    37.774346 
  969000    -1932.823     4754.829    16838.423    4529.5576    155.42159   -97642.021    11595.685   -86046.336    328.58451    2094.1989    129116.78   -121987.43   -82102.885    38.135207 
  970000   -1892.7437    4754.8932    16895.144    4494.8518    147.57379   -97604.318    11724.481   -85879.837    332.23417    1885.1086    128787.67   -122004.04   -82339.158    38.330633 
  971000   -1863.7089    4658.1031    16763.605      4555.58    160.09176   -97733.207    11616.054   -86117.153    329.16169    1868.8308     128772.1   -122006.88   -82607.472    38.026198 
  972000   -1894.4686    4708.6062    16873.249    4570.8111    156.44679   -97599.473    11460.171   -86139.302    324.74449    1128.8146    129033.41   -122014.12   -84015.076    37.988662 
  973000   -1924.0044    4606.5066    16877.689    4567.2278    151.62242   -97693.142    11749.531   -85943.611    332.94401    1484.7816     128444.9   -121972.18   -83162.263    37.968699 
  974000   -1982.1524    4621.6579    16825.817    4580.2637    150.36595   -97795.784    11545.392   -86250.392    327.15936    1489.5723    128824.73   -121991.74   -83451.819    38.233711 
  975000   -1913.7972    4745.4306    16937.517    4508.6173      151.575   -97556.835      11618.4   -85938.434    329.22819    1072.9501    128600.94   -121986.18   -83926.102    37.621536 
  976000   -1948.7613    4708.7742    16863.158    4613.5069    140.66186   -97624.425    11566.746   -86057.679    327.76446    1875.5673    128734.57   -122001.76   -82536.374    37.916891 
  977000   -1926.1281    4764.5794    16797.621    4523.5491    167.51472   -97657.498    11553.896   -86103.602    327.40036    804.73044    128773.27   -121984.63   -84592.297    37.749167 
  978000   -1878.0246    4727.1815    16896.987    4509.4457    146.33335   -97613.247    11667.758   -85945.489    330.62681    2248.3409    127979.01   -122015.17    -81749.09    37.620023 
  979000   -1926.4003      4607.12    16739.197    4543.9865    154.16875   -97871.867    11592.137    -86279.73    328.48398    624.11212    128601.93   -121989.94    -85109.19    37.809482 
  980000   -1916.6023    4830.0202    16803.203    4512.2341    152.06519   -97630.386    11684.583   -85945.803     331.1036    939.47584    129075.13   -122011.31   -84177.307    38.049822 
  981000   -1865.9818    4708.9888    16822.061    4545.1586    153.25215   -97627.582    11531.266   -86096.316    326.75907    1600.2706    128630.47   -121991.06   -83094.299    37.974014 
  982000   -1895.7266    4776.5668    16857.805    4490.6371    157.50715   -97605.711    11715.479   -85890.233    331.97907    1522.0841    128557.55    -121992.5   -83036.508    37.918299 
  983000   -1892.2596    4771.4455    16796.179    4496.3267    167.74206   -97633.558    11523.945   -86109.613    326.55163    2200.9057    128871.91   -121972.99   -81973.088    38.037178 
  984000   -1894.5485    4743.7439    16776.762    4520.6684    161.34094   -97660.477    11845.336   -85815.141    335.65881    1976.7472     128764.1   -121968.44   -82103.023    37.817661 
  985000   -1898.0966    4791.9323    16799.647    4522.5174     154.2925   -97647.783    11683.227   -85964.556    331.06518    1988.0619    129168.49   -122018.08   -82219.464    38.020095 
  986000   -1888.6457    4725.0923    16879.424    4465.5891    154.85062   -97650.324    11569.054    -86081.27    327.82988    1089.8757    129102.57   -121986.63   -84029.221    38.269382 
  987000   -1909.4702    4689.5839    16692.793    4466.8751    152.97029   -97925.092     11708.83   -86216.262    331.79069    1548.9266    128739.14   -122017.84   -83308.108    37.548892 
  988000    -1916.053     4649.055    16794.223    4544.9875    174.06868   -97759.431    11709.744   -86049.687    331.81657     997.8689    128841.98   -122005.71   -84174.664    37.990295 
  989000   -1877.5116    4724.5335    16939.605     4528.437    177.64072   -97492.617    11698.825   -85793.792    331.50717    2360.8252    129304.81   -121985.32     -81341.8     37.79869 
  990000   -1917.1143    4693.9455     16728.96    4504.4887    166.88205   -97806.792     11779.51   -86027.282    333.79352    1100.9495    128617.97   -121983.95   -83962.163    38.364314 
  991000   -1913.5698    4651.6003    16915.092    4551.9723    150.00276   -97629.735    11630.666   -85999.069    329.57577    1522.0623    128905.27   -121984.83   -83137.666    38.160844 
  992000   -1899.0106    4695.8276    16880.419    4542.3363    147.05841   -97598.739     11569.86   -86028.879    327.85272     1981.886     129336.3   -121965.37   -82290.572    37.588803 
  993000    -1900.339    4724.1835    16823.751    4514.1343    153.73395    -97659.33    11732.028   -85927.302    332.44802    325.97585    129277.19   -121974.79   -85312.715    37.431609 
  994000    -1963.807    4694.2691    16916.296    4587.1409    158.72189   -97667.872     11676.89   -85990.982     330.8856    1891.1377    128869.06   -122060.49   -82436.735    37.600642 
  995000   -1905.4548    4736.7336     16760.03    4533.0711    134.91179   -97751.247    11609.217   -86142.029    328.96797     948.9142    129023.21   -122010.54   -84356.485    38.034685 
  996000   -1952.3987    4650.0366    16871.224    4540.1604    150.01272   -97733.125     11755.58   -85977.545    333.11543    1775.2724    129583.38   -121992.16   -82622.563    37.552508 
  997000   -1880.9905     4718.914    16897.247    4460.7474    159.46504   -97635.001    11669.568   -85965.433    330.67811    1433.5894    129700.92   -121990.38    -83253.72    37.738106 
  998000   -1941.4812    4725.5408    16826.202    4583.9533    148.67834   -97647.675     11603.64   -86044.035    328.80994    1484.8472    129506.38   -121990.57   -83239.578    38.230972 
  999000   -1873.3707    4588.6835    16820.704    4560.0523    162.22846    -97742.22    11563.058   -86179.163    327.65996    1953.6606    129227.49   -122000.52   -82497.195    37.621541 
 1000000   -1926.5505    4720.6649    16832.166      4473.41    156.66703    -97744.56    11577.751   -86166.809    328.07632    1508.9034    129360.36   -122000.92    -83320.13    38.392956 
 1001000   -1939.9893    4743.2126    16854.178    4487.5942    138.13927   -97741.194     11581.93   -86159.264    328.19475    361.26245    128708.63   -122024.33   -85481.144    37.932088 
Loop time of 13224.7 on 56 procs for 500000 steps with 11840 atoms

Performance: 3.267 ns/day, 7.347 hours/ns, 37.808 timesteps/s
98.0% CPU use with 56 MPI tasks x no OpenMP threads

MPI task timing breakdown:
Section |  min time  |  avg time  |  max time  |%varavg| %total
---------------------------------------------------------------
Pair    | 9247.9     | 9904.1     | 10630      | 412.7 | 74.89
Bond    | 246.23     | 289        | 330.42     | 165.2 |  2.19
Kspace  | 1426.2     | 2139.6     | 2816.7     | 934.7 | 16.18
Neigh   | 128.87     | 129.13     | 129.4      |   1.2 |  0.98
Comm    | 106.36     | 135.77     | 176.9      | 163.8 |  1.03
Output  | 0.037889   | 0.038386   | 0.048154   |   0.7 |  0.00
Modify  | 484.08     | 563.52     | 652.7      | 184.0 |  4.26
Other   |            | 63.58      |            |       |  0.48

Nlocal:        211.429 ave         235 max         191 min
Histogram: 4 6 6 10 8 6 3 4 7 2
Nghost:        7079.52 ave        7200 max        6928 min
Histogram: 4 3 1 5 6 17 4 4 3 9
Neighs:        111850.0 ave      124671 max      101477 min
Histogram: 6 5 5 12 7 6 2 4 6 3

Total # of neighbors = 6263598
Ave neighs/atom = 529.02010
Ave special neighs/atom = 6.1405405
Neighbor list builds = 18953
Dangerous builds = 0
write_data      data_2_press.*
System init for write_data ...
PPPM initialization ...
  using 12-bit tables for long-range coulomb (../kspace.cpp:340)
  G vector (1/distance) = 0.26626472
  grid = 45 50 60
  stencil order = 5
  estimated absolute RMS force accuracy = 0.00034629693
  estimated relative force accuracy = 1.0428629e-06
  using double precision FFTW3
  3d grid and FFT values/proc = 9280 4500
WARNING: Not all mixed pair coeffs generated from mixing. Use write_data with 'pair ij' option to store all pair coeffs. (../write_data.cpp:312)
unfix 1




#-------------------------------------------------------------------------------
shell "cat log.lammps | grep -v '[a-zA-Z]' | grep -v '^[[:space:]]*$' | grep -v '}' | grep -v '^-*$' | grep -v '^#*$' | grep -v '#-' | tail -n +4 > lmps.dat"
Total wall time: 7:11:14
