# LAMMPS data file written by OVITO Basic 3.11.2

8384 atoms
9088 bonds
16896 angles
24576 dihedrals
1536 impropers
13 atom types
15 bond types
26 angle types
31 dihedral types
4 improper types

0.0 51.703312 xlo xhi
0.0 51.703314 ylo yhi
0.0 51.703314 zlo zhi

Masses

1 65.38  # buck6d->(zn4_o4@zn4o)|Zn4O_benz/gaussian->(zn4_o4@zn4o)|Zn4O_benz
2 1.0079  # buck6d->(h1_c1@ph)|benzene/gaussian->(h1_c1@ph)|benzene
3 1.0079  # buck6d->(h1_c1@me)|butane/gaussian->(h1_c1@me)|butane
4 12.0107  # buck6d->(c3_c2h1@ph)|benzene/gaussian->(c3_c3@ph)|Zn4O_benz
5 12.0107  # buck6d->(c3_c2h1@ph)|benzene/gaussian->(c3_c2h1@ph)|benzene
6 12.0107  # buck6d->(c3_c2o1@ph)|ph-O-butyl/gaussian->(c3_c2o1@ph)|ph-O-butyl
7 12.0107  # buck6d->(c3_c1o2@co2)|Zn4O_benz/gaussian->(c3_c1o2@co2)|Zn4O_benz
8 12.0107  # buck6d->(c4_c2h2@me)|butane/gaussian->(c4_c2h2@me)|butane
9 12.0107  # buck6d->(c4_c1h2o1@me)|ph-O-butyl/gaussian->(c4_c1h2o1@me)|ph-O-butyl
10 12.0107  # buck6d->(c4_c1h3@me)|butane/gaussian->(c4_c1h3@me)|butane
11 15.9994  # buck6d->(o4_zn4@zn4o)|Zn4O_benz/gaussian->(o4_zn4@zn4o)|Zn4O_benz
12 15.9994  # buck6d->(o2_c2@eth)|ph-O-butyl/gaussian->(o2_c2@eth)|ph-O-butyl
13 15.9994  # buck6d->(o2_c1zn1@co2)|Zn4O_benz/gaussian->(o2_c1zn1@co2)|Zn4O_benz

Atoms  # full

1 1 1 1.42 24.963841 24.793741 25.564794
2 1 1 1.42 25.039584 1.209129 1.923387
3 1 1 1.42 1.402215 24.767244 1.865542
4 1 1 1.42 1.374329 1.154415 25.475726
5 1 2 0.12 20.838095 0.086043 3.0711
6 1 2 0.12 5.527699 0.486601 24.514884
7 1 2 0.12 2.458161 20.69635 0.612059
8 1 2 0.12 24.100878 5.355515 0.831812
9 1 2 0.12 0.508592 2.254596 21.398218
10 1 2 0.12 0.804353 23.833778 5.99919
11 1 3 0.06 22.639271 1.152931 22.598169
12 1 3 0.06 3.851727 24.624206 5.042244
13 1 3 0.06 21.878712 21.731249 2.208759
14 1 3 0.06 4.591031 3.535041 25.328051
15 1 3 0.06 0.683335 21.915847 23.171947
16 1 3 0.06 25.023213 4.2365 4.269108
17 1 3 0.06 22.315422 25.348205 22.124348
18 1 3 0.06 4.226472 0.43847 5.456914
19 1 3 0.06 21.362332 21.953418 0.542465
20 1 3 0.06 5.040066 3.973751 1.117522
21 1 3 0.06 24.933835 21.373356 22.701772
22 1 3 0.06 0.78224 4.75091 4.74293
23 1 3 0.06 20.143763 1.421103 23.174732
24 1 3 0.06 6.176127 24.26474 4.195429
25 1 3 0.06 22.607861 19.352078 1.623309
26 1 3 0.06 3.799356 5.861243 24.873531
27 1 3 0.06 1.157211 22.628628 20.801841
28 1 3 0.06 24.546711 3.472377 6.615969
29 1 3 0.06 19.939591 25.539399 22.793147
30 1 3 0.06 6.630454 0.06338 4.712263
31 1 3 0.06 22.265241 19.738467 25.759792
32 1 3 0.06 4.354891 6.377131 0.641233
33 1 3 0.06 25.402822 22.028398 20.307869
34 1 3 0.06 0.300733 4.059614 7.135266
35 1 3 0.06 19.685979 1.409137 7.705325
36 1 3 0.06 3.63595 25.30122 20.273009
37 1 3 0.06 7.542749 22.744179 0.871739
38 1 3 0.06 19.844776 3.591378 25.841664
39 1 3 0.06 1.427487 6.362578 22.571834
40 1 3 0.06 0.192079 19.44999 4.102223
41 1 3 0.06 20.769258 0.330737 20.303834
42 1 3 0.06 5.826428 25.550092 7.2089
43 1 3 0.06 20.297017 19.725398 2.374018
44 1 3 0.06 6.815046 5.4986 0.283123
45 1 3 0.06 0.084544 19.62598 21.213878
46 1 3 0.06 25.690171 6.513858 6.219118
47 1 3 0.06 21.730482 0.896552 6.361233
48 1 3 0.06 4.213063 23.015867 19.48985
49 1 3 0.06 7.464191 21.841015 3.310295
50 1 3 0.06 18.988054 4.050793 23.572714
51 1 3 0.06 3.661398 7.203198 21.984742
52 1 3 0.06 23.780508 18.494758 4.435384
53 1 3 0.06 20.323601 2.659493 21.311775
54 1 3 0.06 6.435865 23.293066 6.132193
55 1 3 0.06 19.630206 21.981251 3.24961
56 1 3 0.06 5.71212 5.99762 23.843629
57 1 3 0.06 2.362887 20.74309 20.849027
58 1 3 0.06 23.412859 5.352865 6.658576
59 1 4 0.18 21.050574 0.091458 0.910868
60 1 4 0.18 5.345639 0.205549 0.80037
61 1 4 0.18 0.299234 20.81427 0.671476
62 1 4 0.18 0.399565 5.149384 0.742366
63 1 4 0.18 0.017185 0.144547 21.568546
64 1 4 0.18 0.533367 0.123511 5.850495
65 1 5 -0.12 20.323735 0.082843 2.107422
66 1 5 -0.12 6.058001 0.289992 25.450168
67 1 5 -0.12 1.519795 20.138913 0.567084
68 1 5 -0.12 25.053285 5.871664 0.701086
69 1 5 -0.12 0.290005 1.325138 20.866204
70 1 5 -0.12 0.588407 24.75878 6.540742
71 1 6 -0.06326 20.394936 0.096392 25.519591
72 1 6 -0.06326 6.017622 25.801798 2.006889
73 1 6 -0.06326 24.938488 20.11089 0.613547
74 1 6 -0.06326 1.622404 5.801885 0.517905
75 1 6 -0.06326 25.633755 24.797117 20.877253
76 1 6 -0.06326 0.263803 1.315871 6.538959
77 1 7 0.61 22.540589 0.024634 0.969181
78 1 7 0.61 3.854427 0.109718 0.720718
79 1 7 0.61 0.315758 22.306981 0.695356
80 1 7 0.61 0.327272 3.653404 0.769036
81 1 7 0.61 0.067206 0.166209 23.061129
82 1 7 0.61 0.45399 0.074888 4.35635
83 1 8 -0.12 21.862655 0.501302 22.167578
84 1 8 -0.12 4.662889 25.27957 5.400245
85 1 8 -0.12 21.495725 21.19275 1.329673
86 1 8 -0.12 4.980049 4.364947 0.088794
87 1 8 -0.12 0.117654 21.473301 22.336444
88 1 8 -0.12 25.598735 4.65778 5.109961
89 1 3 0.06 20.953864 2.812183 5.7036
90 1 3 0.06 5.398394 23.289909 21.279507
91 1 3 0.06 5.548603 21.669383 2.342522
92 1 3 0.06 20.668451 5.408348 23.761548
93 1 3 0.06 3.416072 5.50558 20.669118
94 1 3 0.06 23.816611 20.243446 5.717841
95 1 9 0.06939 20.664186 0.45251 23.113555
96 1 9 0.06939 5.794641 25.281945 4.375659
97 1 9 0.06939 22.529784 20.167957 0.886023
98 1 9 0.06939 3.986956 5.522047 0.052947
99 1 9 0.06939 0.13126 22.432854 21.151794
100 1 9 0.06939 25.574237 3.677932 6.279376
101 1 10 -0.18 21.563995 1.902769 6.777519
102 1 10 -0.18 5.012661 23.685427 19.843253
103 1 10 -0.18 7.04167 21.331789 2.431004
104 1 10 -0.18 19.285229 4.898986 24.209358
105 1 10 -0.18 2.987684 6.89458 21.170566
106 1 10 -0.18 24.346827 18.857064 5.307746
107 1 8 -0.12 21.555158 0.96856 20.73264
108 1 8 -0.12 5.083291 24.841695 6.815242
109 1 8 -0.12 20.137993 20.571792 1.687226
110 1 8 -0.12 6.397782 4.730759 25.46732
111 1 8 -0.12 0.671057 20.07063 22.030427
112 1 8 -0.12 25.06487 6.061964 5.436871
113 1 11 -1.78 0.271484 0.062871 0.786683
114 1 12 -0.12613 21.189715 0.117038 24.403758
115 1 12 -0.12613 5.260893 25.794738 3.149768
116 1 12 -0.12613 23.788482 20.838882 0.76742
117 1 12 -0.12613 2.759467 5.044738 0.612871
118 1 12 -0.12613 25.393354 23.660576 21.597694
119 1 12 -0.12613 0.309933 2.466119 5.798782
120 1 13 -0.72 23.129473 0.720064 1.855318
121 1 13 -0.72 1.220711 22.867483 1.388726
122 1 13 -0.72 0.805523 1.045941 23.602106
123 1 13 -0.72 23.103181 25.110568 0.131864
124 1 13 -0.72 25.292735 22.902594 -0.00149
125 1 13 -0.72 25.213381 25.164943 23.677333
126 1 13 -0.72 3.269729 25.242218 1.587713
127 1 13 -0.72 1.200662 3.028548 0.094461
128 1 13 -0.72 25.61326 0.967137 3.774145
129 1 13 -0.72 3.286879 0.728165 25.617756
130 1 13 -0.72 25.236943 3.119082 1.437343
131 1 13 -0.72 1.065095 24.970665 3.784194
132 1 1 1.42 14.306623 1.070045 2.057517
133 1 1 1.42 14.339012 24.737715 25.626235
134 1 1 1.42 12.071279 1.1003 25.671083
135 1 1 1.42 12.084535 24.678822 2.01931
136 1 2 0.12 7.933983 25.391877 2.933494
137 1 2 0.12 18.475459 0.04683 24.512105
138 1 2 0.12 15.19668 20.634877 25.608967
139 1 2 0.12 11.066461 5.266051 0.811362
140 1 2 0.12 12.791922 2.109441 21.530902
141 1 2 0.12 12.624982 23.702387 6.148541
142 1 3 0.06 9.635208 1.223349 22.411047
143 1 3 0.06 16.609399 24.701802 4.881612
144 1 3 0.06 9.60075 22.423229 2.223791
145 1 3 0.06 17.35358 3.349216 25.553038
146 1 3 0.06 14.670951 21.639498 23.107321
147 1 3 0.06 12.321486 3.934105 4.309563
148 1 3 0.06 9.171256 25.439726 21.963795
149 1 3 0.06 16.877891 0.527718 5.313253
150 1 3 0.06 9.863972 22.127871 0.514109
151 1 3 0.06 17.864553 3.694369 1.344254
152 1 3 0.06 13.033296 21.104851 22.764044
153 1 3 0.06 13.951418 4.464471 4.677674
154 1 3 0.06 7.32544 1.672996 23.285721
155 1 3 0.06 19.057836 24.437355 4.323542
156 1 3 0.06 9.424203 19.861392 2.563983
157 1 3 0.06 16.686675 5.77747 25.254582
158 1 3 0.06 14.913497 22.513508 20.772399
159 1 3 0.06 11.918851 3.399271 6.736744
160 1 3 0.06 6.806591 0.049675 22.745226
161 1 3 0.06 19.347819 0.273569 4.836856
162 1 3 0.06 9.912816 19.694485 0.861927
163 1 3 0.06 17.22098 6.10186 1.076582
164 1 3 0.06 13.284118 21.895076 20.370219
165 1 3 0.06 13.549902 4.002978 7.137248
166 1 3 0.06 9.627958 0.684306 7.298628
167 1 3 0.06 17.025443 25.047887 20.490598
168 1 3 0.06 19.680019 20.150236 0.77858
169 1 3 0.06 7.045297 3.847034 25.583878
170 1 3 0.06 13.996502 6.32135 22.902889
171 1 3 0.06 12.178396 19.482055 4.605421
172 1 3 0.06 7.542388 0.484701 20.280135
173 1 3 0.06 18.33067 25.671923 7.231938
174 1 3 0.06 7.584562 21.066871 0.343518
175 1 3 0.06 19.623371 5.269643 0.468417
176 1 3 0.06 13.885393 19.446595 21.099527
177 1 3 0.06 13.070608 6.374783 6.018108
178 1 3 0.06 9.042696 2.961492 8.046134
179 1 3 0.06 17.506252 22.862516 19.503463
180 1 3 0.06 18.991233 22.418271 1.668503
181 1 3 0.06 6.20003 4.386454 23.338573
182 1 3 0.06 16.22452 7.121041 22.234426
183 1 3 0.06 9.932638 18.559915 4.962619
184 1 3 0.06 7.233578 2.797019 21.391116
185 1 3 0.06 18.986169 23.35712 6.402477
186 1 3 0.06 7.157046 20.252279 2.614543
187 1 3 0.06 18.55109 5.695736 24.016608
188 1 3 0.06 16.109617 20.662355 20.573031
189 1 3 0.06 10.762114 5.317032 6.567085
190 1 4 0.18 8.115111 25.668187 0.794341
191 1 4 0.18 18.268374 0.072729 0.818247
192 1 4 0.18 13.3244 20.733409 0.864501
193 1 4 0.18 13.216684 5.01596 0.892277
194 1 4 0.18 13.053866 25.813535 21.698559
195 1 4 0.18 13.08462 25.816643 5.999454
196 1 5 -0.12 7.404023 25.590458 1.998244
197 1 5 -0.12 18.994991 0.06992 25.473469
198 1 5 -0.12 14.377077 20.078118 0.215381
199 1 5 -0.12 12.038722 5.766295 0.807711
200 1 5 -0.12 12.957718 1.171682 20.997057
201 1 5 -0.12 12.786873 24.637573 6.690681
202 1 6 -0.06326 7.443807 0.080631 25.441132
203 1 6 -0.06326 18.924721 0.059536 2.05899
204 1 6 -0.06326 12.298374 19.96954 1.44491
205 1 6 -0.06326 14.473681 5.639283 0.848719
206 1 6 -0.06326 13.302024 24.612106 21.012679
207 1 6 -0.06326 13.233309 1.175741 6.692857
208 1 7 0.61 16.776154 0.106808 0.761827
209 1 7 0.61 9.609493 25.710154 0.860749
210 1 7 0.61 13.108211 3.534382 1.013399
211 1 7 0.61 13.320919 22.234701 0.89433
212 1 7 0.61 13.187419 25.75923 4.510112
213 1 7 0.61 13.114242 25.866849 23.192743
214 1 8 -0.12 8.787886 0.617984 22.048446
215 1 8 -0.12 17.353012 25.383943 5.32467
216 1 8 -0.12 9.362439 21.721914 1.407763
217 1 8 -0.12 17.788545 4.13649 0.336837
218 1 8 -0.12 14.027401 21.238889 22.307386
219 1 8 -0.12 12.92794 4.42586 5.086607
220 1 3 0.06 7.809561 2.67245 6.286902
221 1 3 0.06 18.98341 22.984704 21.0791
222 1 3 0.06 17.819684 20.922015 2.718398
223 1 3 0.06 7.832474 5.784547 23.582941
224 1 3 0.06 15.953359 5.335202 21.032819
225 1 3 0.06 10.055609 20.096606 6.481206
226 1 9 0.06939 7.668015 0.645489 23.084803
227 1 9 0.06939 18.59366 25.429872 4.437512
228 1 9 0.06939 9.955077 20.358494 1.738013
229 1 9 0.06939 16.836355 5.326023 0.396527
230 1 9 0.06939 13.922785 22.268006 21.186395
231 1 9 0.06939 12.935165 3.555178 6.341625
232 1 10 -0.18 8.23626 2.287901 7.715918
233 1 10 -0.18 18.359385 23.503098 19.77378
234 1 10 -0.18 19.163914 21.564551 2.342958
235 1 10 -0.18 6.468986 5.217296 24.009019
236 1 10 -0.18 15.538714 6.758634 21.452547
237 1 10 -0.18 10.54869 18.785216 5.846789
238 1 8 -0.12 8.371534 1.106621 20.649283
239 1 8 -0.12 17.600379 24.981817 6.787464
240 1 8 -0.12 7.843114 21.73134 1.182567
241 1 8 -0.12 19.20403 4.474027 25.687653
242 1 8 -0.12 14.557062 19.862368 21.8651
243 1 8 -0.12 12.42607 5.868115 5.286454
244 1 11 -1.78 13.197284 25.816718 0.91558
245 1 12 -0.12613 8.195068 0.090249 24.295188
246 1 12 -0.12613 18.123819 25.889982 3.16711
247 1 12 -0.12613 11.307874 20.580757 2.154791
248 1 12 -0.12613 15.581836 4.83593 0.88537
249 1 12 -0.12613 13.346625 23.45502 21.745814
250 1 12 -0.12613 13.501532 2.29651 5.956163
251 1 13 -0.72 16.214541 25.320462 25.670142
252 1 13 -0.72 12.159398 2.9745 0.382497
253 1 13 -0.72 12.480928 24.88238 3.92435
254 1 13 -0.72 16.183162 0.783277 1.65516
255 1 13 -0.72 13.954769 2.95318 1.755611
256 1 13 -0.72 13.980655 0.717582 3.942864
257 1 13 -0.72 10.209512 0.566744 25.8474
258 1 13 -0.72 12.418131 22.810306 1.575573
259 1 13 -0.72 13.773903 24.955503 23.779613
260 1 13 -0.72 10.16632 25.05395 1.796161
261 1 13 -0.72 14.229006 22.827584 0.230416
262 1 13 -0.72 12.522275 0.985762 23.761876
263 1 1 1.42 1.591975 14.133014 1.482655
264 1 1 1.42 1.609018 11.886127 25.102438
265 1 1 1.42 25.131634 14.053991 25.172294
266 1 1 1.42 25.29828 11.820574 1.559541
267 1 2 0.12 21.200584 12.428172 2.548583
268 1 2 0.12 5.80676 12.819196 24.117118
269 1 2 0.12 2.59012 7.690002 0.076947
270 1 2 0.12 24.014777 18.166347 0.339799
271 1 2 0.12 25.753052 15.045572 21.042951
272 1 2 0.12 0.270119 10.756064 5.644794
273 1 3 0.06 22.724635 13.80246 22.09599
274 1 3 0.06 3.817554 11.853477 4.496913
275 1 3 0.06 22.107707 9.494899 1.607471
276 1 3 0.06 4.624156 17.095755 24.76317
277 1 3 0.06 1.69288 8.833724 22.775034
278 1 3 0.06 0.062052 16.97688 3.846752
279 1 3 0.06 22.304377 12.189129 21.538532
280 1 3 0.06 4.13638 13.515628 4.95938
281 1 3 0.06 21.590586 9.07619 25.831337
282 1 3 0.06 5.054749 16.84206 0.597847
283 1 3 0.06 0.04344 8.342782 22.423114
284 1 3 0.06 1.630263 17.526893 4.405286
285 1 3 0.06 20.356965 14.1532 22.902149
286 1 3 0.06 6.251675 11.529664 3.916032
287 1 3 0.06 22.947537 7.170008 1.982908
288 1 3 0.06 3.939401 19.488966 25.337735
289 1 3 0.06 2.031594 9.5717 20.413795
290 1 3 0.06 25.314699 16.261231 6.191912
291 1 3 0.06 19.928116 12.52325 22.320972
292 1 3 0.06 6.58826 13.202749 4.441046
293 1 3 0.06 22.336303 6.686133 0.37229
294 1 3 0.06 4.183365 19.075642 1.213553
295 1 3 0.06 0.413992 8.949239 19.970843
296 1 3 0.06 1.042611 16.861555 6.765318
297 1 3 0.06 22.736556 13.610544 6.927449
298 1 3 0.06 4.336763 11.953818 20.167052
299 1 3 0.06 6.743432 9.290677 1.3631
300 1 3 0.06 18.562365 15.925333 1.164987
301 1 3 0.06 0.500215 19.432547 22.911721
302 1 3 0.06 25.193167 6.697326 4.546171
303 1 3 0.06 20.71998 13.146722 19.860515
304 1 3 0.06 5.587556 12.73833 6.84621
305 1 3 0.06 19.901247 7.472033 0.894054
306 1 3 0.06 6.27555 19.04368 24.682758
307 1 3 0.06 0.861823 6.529685 20.918441
308 1 3 0.06 0.557518 19.28445 5.813893
309 1 3 0.06 22.080773 15.904723 7.653572
310 1 3 0.06 4.698962 9.681908 19.289574
311 1 3 0.06 7.498101 8.721815 3.643526
312 1 3 0.06 20.860198 15.831464 0.363079
313 1 3 0.06 2.760724 20.370798 22.522996
314 1 3 0.06 22.95909 5.789485 5.017233
315 1 3 0.06 20.298598 15.373164 21.149525
316 1 3 0.06 6.159858 10.415391 5.880235
317 1 3 0.06 21.124586 7.067471 3.14813
318 1 3 0.06 6.899588 16.740194 23.856245
319 1 3 0.06 3.142639 7.618376 20.357086
320 1 3 0.06 24.130829 18.154835 6.126941
321 1 4 0.18 21.286004 12.53079 0.398856
322 1 4 0.18 5.54962 12.951951 0.412787
323 1 4 0.18 0.441582 7.899524 0.21332
324 1 4 0.18 0.322237 18.045921 0.331751
325 1 4 0.18 0.180433 12.906902 21.19645
326 1 4 0.18 0.69892 12.882503 5.483024
327 1 5 -0.12 20.621113 12.519634 1.625498
328 1 5 -0.12 6.303871 12.847084 25.09065
329 1 5 -0.12 1.639169 7.175716 0.236723
330 1 5 -0.12 24.952514 18.722999 0.416183
331 1 5 -0.12 0.07796 14.114247 20.498198
332 1 5 -0.12 0.419113 11.697478 6.178876
333 1 6 -0.06326 20.56283 12.661371 25.055718
334 1 6 -0.06326 6.177564 12.949172 1.669222
335 1 6 -0.06326 25.069256 7.248743 0.436856
336 1 6 -0.06326 1.534143 18.749683 0.388368
337 1 6 -0.06326 0.417757 11.705826 20.513769
338 1 6 -0.06326 0.856492 14.090787 6.182323
339 1 7 0.61 4.063082 13.060986 0.303356
340 1 7 0.61 22.766539 12.725675 0.44366
341 1 7 0.61 0.307754 16.554949 0.409314
342 1 7 0.61 0.526035 9.389968 0.298543
343 1 7 0.61 0.666679 12.866206 3.986341
344 1 7 0.61 0.292118 12.970982 22.684122
345 1 8 -0.12 21.897979 13.20411 21.677811
346 1 8 -0.12 4.583119 12.507308 4.943762
347 1 8 -0.12 21.70544 8.669341 0.997559
348 1 8 -0.12 4.982393 17.613614 25.664785
349 1 8 -0.12 1.053664 8.403543 21.986213
350 1 8 -0.12 0.57696 17.421265 4.713199
351 1 3 0.06 21.014802 15.560208 5.800133
352 1 3 0.06 6.179577 9.839222 20.858948
353 1 3 0.06 5.773302 7.441495 3.343968
354 1 3 0.06 20.724391 17.247115 24.580494
355 1 3 0.06 2.671512 18.644974 21.213829
356 1 3 0.06 23.104462 7.462744 6.381657
357 1 9 0.06939 20.754963 13.150192 22.687709
358 1 9 0.06939 5.812946 12.532402 4.040118
359 1 9 0.06939 22.719912 7.529163 0.966656
360 1 9 0.06939 3.958317 18.664047 0.216898
361 1 9 0.06939 1.020215 9.357292 20.794515
362 1 9 0.06939 0.504675 16.458464 5.893424
363 1 10 -0.18 21.31867 15.209448 7.26876
364 1 10 -0.18 5.578394 10.30259 19.521789
365 1 10 -0.18 7.191671 7.908558 2.966706
366 1 10 -0.18 20.0932 16.211753 25.523334
367 1 10 -0.18 2.165298 20.028294 21.6621
368 1 10 -0.18 23.587697 6.096843 5.867202
369 1 8 -0.12 21.504868 13.775482 20.304592
370 1 8 -0.12 4.845675 12.064631 6.39415
371 1 8 -0.12 20.316882 8.266073 1.531926
372 1 8 -0.12 6.373667 18.192535 25.375129
373 1 8 -0.12 1.533247 6.978067 21.664344
374 1 8 -0.12 4.9e-04 18.82201 4.98656
375 1 11 -1.78 0.480911 12.973604 0.398166
376 1 12 -0.12613 21.284936 12.593552 23.894573
377 1 12 -0.12613 5.364875 13.015263 2.768433
378 1 12 -0.12613 23.930014 8.010358 0.368867
379 1 12 -0.12613 2.68264 18.016231 0.253836
380 1 12 -0.12613 0.430512 10.568654 21.275289
381 1 12 -0.12613 1.114784 15.231197 5.473087
382 1 13 -0.72 3.50103 12.409881 25.219796
383 1 13 -0.72 25.227201 15.955759 25.64085
384 1 13 -0.72 25.864945 11.927667 3.434277
385 1 13 -0.72 3.476569 13.811206 1.140081
386 1 13 -0.72 1.207996 16.00214 1.111036
387 1 13 -0.72 1.29583 13.782051 3.37542
388 1 13 -0.72 23.293018 13.450391 25.396616
389 1 13 -0.72 25.519337 9.96913 1.030761
390 1 13 -0.72 1.044117 12.120526 23.253349
391 1 13 -0.72 23.378887 12.180479 1.414984
392 1 13 -0.72 1.467795 9.961462 25.514573
393 1 13 -0.72 25.499233 13.900613 23.26102
394 1 1 1.42 12.312396 11.718603 25.31222
395 1 1 1.42 12.267552 13.914802 1.715629
396 1 1 1.42 14.564363 11.718321 1.681889
397 1 1 1.42 14.520891 13.97083 25.296553
398 1 2 0.12 8.071145 12.918987 2.723318
399 1 2 0.12 18.600311 12.932986 24.172699
400 1 2 0.12 15.521677 7.535796 0.766504
401 1 2 0.12 11.520635 18.009041 1.844678
402 1 2 0.12 13.990333 14.883742 21.174599
403 1 2 0.12 13.755494 10.680691 5.817023
404 1 3 0.06 10.039306 13.826558 22.317341
405 1 3 0.06 17.244221 11.4807 4.733259
406 1 3 0.06 9.210071 9.4575 1.740366
407 1 3 0.06 18.031459 18.017634 24.828468
408 1 3 0.06 14.231542 8.794763 22.959684
409 1 3 0.06 11.981004 17.0137 4.177854
410 1 3 0.06 9.72391 12.158856 21.870614
411 1 3 0.06 17.893829 12.935698 5.492465
412 1 3 0.06 8.771989 9.13986 0.072031
413 1 3 0.06 17.390377 16.369819 24.827774
414 1 3 0.06 12.588057 8.268339 22.649821
415 1 3 0.06 13.599017 17.525273 4.636622
416 1 3 0.06 7.591105 14.139177 22.888857
417 1 3 0.06 19.556554 11.088346 3.683894
418 1 3 0.06 9.80164 6.999339 2.038807
419 1 3 0.06 16.814552 18.464798 1.144664
420 1 3 0.06 14.536324 9.359976 20.525778
421 1 3 0.06 11.567443 16.102614 6.460108
422 1 3 0.06 7.284862 12.443328 22.411028
423 1 3 0.06 20.030347 12.691725 4.320873
424 1 3 0.06 9.379603 6.727733 0.324447
425 1 3 0.06 16.136827 16.823488 1.073704
426 1 3 0.06 12.887533 8.768109 20.184655
427 1 3 0.06 13.150165 16.730184 7.012245
428 1 3 0.06 9.336319 13.824447 6.78717
429 1 3 0.06 16.945411 12.096393 20.003464
430 1 3 0.06 19.633766 9.124291 1.428346
431 1 3 0.06 6.799684 18.597662 0.454727
432 1 3 0.06 14.497714 19.173945 22.722911
433 1 3 0.06 12.564069 6.413498 4.339384
434 1 3 0.06 8.234982 12.926475 20.000122
435 1 3 0.06 18.93095 10.066704 5.883507
436 1 3 0.06 6.919642 7.625567 0.830147
437 1 3 0.06 19.234313 17.551928 1.137693
438 1 3 0.06 13.410682 6.380573 21.247888
439 1 3 0.06 12.644937 19.169728 6.268373
440 1 3 0.06 8.696431 16.040785 7.672669
441 1 3 0.06 17.407514 9.811701 19.183905
442 1 3 0.06 20.570315 8.657607 3.646089
443 1 3 0.06 7.478325 16.325064 25.466369
444 1 3 0.06 16.684062 20.152953 22.15402
445 1 3 0.06 10.303597 5.64769 4.90134
446 1 3 0.06 7.666965 15.245457 20.929942
447 1 3 0.06 16.844647 10.60578 7.197265
448 1 3 0.06 7.885514 7.076289 3.158718
449 1 3 0.06 19.769313 15.34872 24.926124
450 1 3 0.06 15.68258 7.424649 20.588367
451 1 3 0.06 10.3606 17.971788 6.561178
452 1 4 0.18 8.331036 12.789932 0.574512
453 1 4 0.18 18.507284 12.840513 0.484995
454 1 4 0.18 13.372545 7.784899 0.685644
455 1 4 0.18 13.382265 17.916358 0.724174
456 1 4 0.18 13.480634 12.780705 21.3438
457 1 4 0.18 13.502474 12.828902 5.663551
458 1 5 -0.12 7.575781 12.888558 1.749372
459 1 5 -0.12 19.168799 12.828914 25.100722
460 1 5 -0.12 14.549782 7.034579 0.76819
461 1 5 -0.12 12.326604 18.571686 1.370091
462 1 5 -0.12 13.763901 13.956762 20.641514
463 1 5 -0.12 13.548657 11.610005 6.353456
464 1 6 -0.06326 7.700795 12.7807 25.171234
465 1 6 -0.06326 19.231499 12.676582 1.674622
466 1 6 -0.06326 12.115214 7.161425 0.718923
467 1 6 -0.06326 14.427272 18.681406 0.177281
468 1 6 -0.06326 13.248967 11.580013 20.654273
469 1 6 -0.06326 13.213229 14.020564 6.350009
470 1 7 0.61 9.822742 12.737625 0.668872
471 1 7 0.61 17.01261 12.878996 0.506803
472 1 7 0.61 13.484671 9.265389 0.553597
473 1 7 0.61 13.341214 16.418586 0.631172
474 1 7 0.61 13.416384 12.847044 22.834387
475 1 7 0.61 13.482662 12.791609 4.166582
476 1 8 -0.12 9.272241 13.164944 21.882838
477 1 8 -0.12 18.172012 11.938412 5.115264
478 1 8 -0.12 8.790175 8.685654 1.076867
479 1 8 -0.12 17.712772 17.193118 25.485402
480 1 8 -0.12 13.594157 8.314433 22.200598
481 1 8 -0.12 12.5743 17.40015 5.02264
482 1 3 0.06 7.335688 15.760211 6.022421
483 1 3 0.06 18.694268 10.001982 20.914269
484 1 3 0.06 19.009532 7.166645 3.495381
485 1 3 0.06 8.713202 17.773821 24.421932
486 1 3 0.06 16.476057 18.548766 20.717479
487 1 3 0.06 10.529154 7.413528 6.142474
488 1 9 0.06939 8.04732 13.141336 22.790621
489 1 9 0.06939 19.178336 12.078248 3.98827
490 1 9 0.06939 9.724516 7.479792 1.050864
491 1 9 0.06939 16.526751 17.651999 0.460788
492 1 9 0.06939 13.536564 9.202155 20.960773
493 1 9 0.06939 12.58896 16.360745 6.139403
494 1 10 -0.18 7.904309 15.334552 7.385643
495 1 10 -0.18 18.2499 10.443039 19.507217
496 1 10 -0.18 20.320195 7.802081 2.99999
497 1 10 -0.18 7.345357 17.167057 24.768584
498 1 10 -0.18 16.002907 19.87611 21.334445
499 1 10 -0.18 10.953428 5.993646 5.720596
500 1 8 -0.12 8.990946 13.597188 20.434574
501 1 8 -0.12 18.734379 11.083538 6.257242
502 1 8 -0.12 7.34498 8.379461 1.508056
503 1 8 -0.12 18.899827 16.727398 0.489187
504 1 8 -0.12 14.088276 6.877363 21.956672
505 1 8 -0.12 12.033728 18.779945 5.441209
506 1 11 -1.78 13.424656 12.843526 0.583231
507 1 12 -0.12613 8.510063 12.703486 24.071357
508 1 12 -0.12613 18.556507 12.706701 2.864417
509 1 12 -0.12613 11.012789 7.971469 0.663852
510 1 12 -0.12613 15.50973 18.124665 25.416868
511 1 12 -0.12613 12.993113 10.45662 21.389343
512 1 12 -0.12613 13.220642 15.182916 5.623485
513 1 13 -0.72 10.373687 13.386507 1.612032
514 1 13 -0.72 14.437965 9.829385 1.174506
515 1 13 -0.72 14.110162 13.749081 23.397087
516 1 13 -0.72 10.428538 12.03604 25.656156
517 1 13 -0.72 12.634564 9.842333 25.66445
518 1 13 -0.72 12.663565 12.017308 23.426433
519 1 13 -0.72 16.429583 12.213623 1.417025
520 1 13 -0.72 14.204424 15.844861 25.749861
521 1 13 -0.72 12.788865 13.674299 3.574392
522 1 13 -0.72 16.437715 13.562271 25.45442
523 1 13 -0.72 12.435059 15.828138 1.299257
524 1 13 -0.72 14.139479 11.862476 3.599009
525 1 1 1.42 1.233403 1.174027 14.808143
526 1 1 1.42 1.278247 24.829485 12.553077
527 1 1 1.42 24.833092 1.174309 12.586817
528 1 1 1.42 24.876564 24.773457 14.82381
529 1 2 0.12 20.797144 25.811301 15.947665
530 1 2 0.12 5.474654 25.8253 11.545389
531 1 2 0.12 2.025164 20.735246 12.424028
532 1 2 0.12 23.875777 5.356834 13.502202
533 1 2 0.12 25.641961 2.211939 8.451684
534 1 2 0.12 25.407122 23.860545 18.945765
535 1 3 0.06 22.153233 1.41193 9.535448
536 1 3 0.06 3.506493 24.917728 17.803023
537 1 3 0.06 21.365996 20.726653 15.291896
538 1 3 0.06 4.335728 3.43513 12.52834
539 1 3 0.06 1.564794 21.730587 10.090852
540 1 3 0.06 25.165913 4.097867 17.160679
541 1 3 0.06 21.503626 25.808589 8.776242
542 1 3 0.06 3.821889 0.733774 18.24975
543 1 3 0.06 22.007078 22.374468 15.29259
544 1 3 0.06 4.77381 3.75277 14.196675
545 1 3 0.06 25.798438 21.219014 9.632085
546 1 3 0.06 0.957742 4.624291 17.470543
547 1 3 0.06 19.840901 1.804284 10.584812
548 1 3 0.06 5.954694 24.60511 17.231506
549 1 3 0.06 22.582903 20.27949 13.124042
550 1 3 0.06 3.744159 5.893291 12.2299
551 1 3 0.06 1.978356 22.641673 7.808599
552 1 3 0.06 24.861131 3.532654 19.594586
553 1 3 0.06 19.367108 0.200905 9.947833
554 1 3 0.06 6.260937 0.449302 17.709335
555 1 3 0.06 23.260628 21.920799 13.195002
556 1 3 0.06 4.166196 6.164897 13.944259
557 1 3 0.06 0.395634 22.014103 7.256462
558 1 3 0.06 0.658266 4.12452 19.935708
559 1 3 0.06 22.452044 0.796237 20.116899
560 1 3 0.06 4.20948 24.91984 7.481536
561 1 3 0.06 6.746115 20.146625 13.813979
562 1 3 0.06 19.763689 3.768339 12.84036
563 1 3 0.06 0.981729 6.479132 9.929322
564 1 3 0.06 24.899741 19.570342 17.397452
565 1 3 0.06 20.466505 2.825926 8.385199
566 1 3 0.06 5.310817 25.817812 20.120242
567 1 3 0.06 20.163142 21.192359 13.131013
568 1 3 0.06 6.626157 5.267063 13.438559
569 1 3 0.06 0.900862 19.574559 8.000334
570 1 3 0.06 0.135117 6.512057 18.872476
571 1 3 0.06 21.989941 3.080929 20.936459
572 1 3 0.06 4.849368 22.703502 6.596037
573 1 3 0.06 6.067474 22.419223 14.653994
574 1 3 0.06 18.82714 4.235023 10.622618
575 1 3 0.06 3.242202 7.24494 9.367366
576 1 3 0.06 22.713392 18.591334 17.966344
577 1 3 0.06 22.552808 2.28685 7.071441
578 1 3 0.06 5.878834 23.49883 19.190422
579 1 3 0.06 19.628142 23.395567 15.19424
580 1 3 0.06 5.660285 5.816341 11.109989
581 1 3 0.06 3.185199 20.772498 7.707529
582 1 3 0.06 23.714875 5.467981 19.531997
583 1 4 0.18 20.890171 0.052117 13.783712
584 1 4 0.18 5.214763 0.102698 13.694195
585 1 4 0.18 0.163534 20.827929 13.544532
586 1 4 0.18 0.173254 5.107731 13.583062
587 1 4 0.18 0.043325 0.063728 8.605156
588 1 4 0.18 0.065164 0.111925 18.776563
589 1 5 -0.12 20.228656 0.063716 15.019641
590 1 5 -0.12 5.970018 25.855729 12.519334
591 1 5 -0.12 1.219195 20.172601 12.898616
592 1 5 -0.12 24.847673 5.858051 13.500516
593 1 5 -0.12 25.848797 1.282625 7.91525
594 1 5 -0.12 25.633553 24.787525 19.47885
595 1 6 -0.06326 20.165956 0.216048 12.594085
596 1 6 -0.06326 5.845004 0.11193 14.949129
597 1 6 -0.06326 24.970182 20.062881 14.091426
598 1 6 -0.06326 1.430585 5.731205 13.549783
599 1 6 -0.06326 0.332569 24.723723 7.918698
600 1 6 -0.06326 0.296832 1.312617 19.466091
601 1 7 0.61 3.723056 0.155005 13.599834
602 1 7 0.61 22.384844 0.013634 13.761903
603 1 7 0.61 0.061128 3.627241 13.71511
604 1 7 0.61 0.204585 22.3257 13.637535
605 1 7 0.61 0.129414 0.045586 17.285976
606 1 7 0.61 0.063137 0.101021 10.102124
607 1 8 -0.12 21.225442 0.954217 9.153443
608 1 8 -0.12 4.273558 25.579343 18.237526
609 1 8 -0.12 21.684683 21.551169 14.634961
610 1 8 -0.12 4.755624 4.206976 13.191839
611 1 8 -0.12 0.971499 21.344137 9.246067
612 1 8 -0.12 25.803298 4.578197 17.919766
613 1 3 0.06 20.703187 2.890648 19.206094
614 1 3 0.06 6.210111 22.984075 8.246286
615 1 3 0.06 4.832597 20.970466 15.698431
616 1 3 0.06 20.387923 5.725985 10.773326
617 1 3 0.06 3.016645 5.479102 8.126233
618 1 3 0.06 22.921397 20.195521 19.402884
619 1 9 0.06939 20.219118 0.814382 10.280436
620 1 9 0.06939 5.498479 25.602951 17.329743
621 1 9 0.06939 22.870704 21.092288 13.807918
622 1 9 0.06939 3.821283 5.412838 13.217843
623 1 9 0.06939 0.956839 22.383542 8.129304
624 1 9 0.06939 25.860891 3.690475 19.15959
625 1 10 -0.18 21.147555 2.449591 20.613147
626 1 10 -0.18 5.64149 23.409735 6.883063
627 1 10 -0.18 6.200442 21.57723 15.351779
628 1 10 -0.18 19.07726 5.090549 11.268717
629 1 10 -0.18 2.592371 6.898984 8.548111
630 1 10 -0.18 23.394548 18.868177 18.785919
631 1 8 -0.12 20.663076 1.809092 8.011465
632 1 8 -0.12 4.554853 25.147099 19.68579
633 1 8 -0.12 20.497627 22.016889 13.77952
634 1 8 -0.12 6.200819 4.513169 12.760651
635 1 8 -0.12 1.512071 19.964342 8.827498
636 1 8 -0.12 25.309179 6.015267 18.163692
637 1 11 -1.78 0.121143 0.049104 13.685476
638 1 12 -0.12613 20.840948 0.185928 11.40429
639 1 12 -0.12613 5.035736 0.189143 16.049007
640 1 12 -0.12613 23.887725 20.619622 14.703495
641 1 12 -0.12613 2.53301 4.921161 13.604855
642 1 12 -0.12613 0.325157 23.561371 8.645221
643 1 12 -0.12613 0.552686 2.43601 18.731021
644 1 13 -0.72 3.172112 25.35778 12.656674
645 1 13 -0.72 24.95949 3.063245 13.0942
646 1 13 -0.72 25.287293 24.995206 16.723276
647 1 13 -0.72 3.117261 0.85659 14.464207
648 1 13 -0.72 0.911235 3.050297 14.455914
649 1 13 -0.72 0.882234 0.875322 16.69393
650 1 13 -0.72 22.967872 0.679007 12.851682
651 1 13 -0.72 25.193031 22.899426 14.370502
652 1 13 -0.72 0.756934 25.069988 10.694315
653 1 13 -0.72 22.95974 25.182016 14.665943
654 1 13 -0.72 1.11074 22.916149 12.969449
655 1 13 -0.72 25.257976 1.030154 10.669697
656 1 1 1.42 11.953824 24.611273 12.786052
657 1 1 1.42 11.936781 1.006503 15.017925
658 1 1 1.42 14.265821 24.690296 14.94807
659 1 1 1.42 14.099175 1.072056 12.709165
660 1 2 0.12 7.739039 25.925091 16.003245
661 1 2 0.12 18.196871 0.464458 11.720123
662 1 2 0.12 15.382678 20.57794 13.928907
663 1 2 0.12 10.955678 5.202628 14.19176
664 1 2 0.12 13.27568 2.136566 8.623913
665 1 2 0.12 13.644403 23.698715 19.077412
666 1 3 0.06 9.728245 1.039153 9.771794
667 1 3 0.06 16.67282 24.941826 18.024374
668 1 3 0.06 8.921642 21.648531 15.357193
669 1 3 0.06 17.289748 3.397731 12.661235
670 1 3 0.06 13.483747 21.767407 10.421954
671 1 3 0.06 11.852919 4.058906 17.345329
672 1 3 0.06 9.409419 25.228659 9.309327
673 1 3 0.06 17.093078 0.703501 18.581831
674 1 3 0.06 8.49105 21.902227 13.670859
675 1 3 0.06 17.806868 3.81644 14.289027
676 1 3 0.06 11.915536 21.217394 9.86342
677 1 3 0.06 13.502359 4.549848 17.69725
678 1 3 0.06 7.294124 1.362966 10.352674
679 1 3 0.06 19.04049 24.591087 17.218214
680 1 3 0.06 9.606398 19.255321 14.782629
681 1 3 0.06 16.449917 5.722622 12.285798
682 1 3 0.06 14.082756 22.483056 8.076794
683 1 3 0.06 11.514205 3.32093 19.706568
684 1 3 0.06 6.957539 25.541538 9.82766