LAMMPS data file via write_data, version 29 Sep 2021, timestep = 101000

8384 atoms
13 atom types
9088 bonds
15 bond types
16896 angles
26 angle types
24576 dihedrals
31 dihedral types
1536 impropers
4 improper types

0.019924189609046294 51.68338781039053 xlo xhi
-0.0022944284140145044 51.70560842841387 ylo yhi
0.013031671071228601 51.6902823289286 zlo zhi
0.15474747259671065 0.2064074184392042 -0.33482053448825144 xy xz yz

Masses

1 65.38
2 1.0079
3 1.0079
4 12.0107
5 12.0107
6 12.0107
7 12.0107
8 12.0107
9 12.0107
10 12.0107
11 15.9994
12 15.9994
13 15.9994

Pair Coeffs # buck6d/coul/gauss/long

1 50784 2.62009 5731.71 39.9418 0.341054
2 3680 4 32.805 0.106908 0.977155
3 3680 4 32.805 0.106908 0.977155
4 10304 3.06122 457.18 4.52185 0.608002
5 10304 3.06122 457.18 4.52185 0.60801
6 10304 3.06122 457.18 4.52185 0.60801
7 10304 3.09278 429.894 3.91702 0.608002
8 4968 2.94118 280.225 7.91687 0.60801
9 4968 2.94118 280.225 7.91687 0.60801
10 4968 2.94118 280.225 7.91687 0.60801
11 10856 3.2967 308.776 1.60225 0.632701
12 10856 3.2967 308.776 1.60225 0.632728
13 10856 3.2967 308.776 1.60225 0.632701

Dihedral Coeffs # opls

1 0 0 0 0
2 0 0 0 0
3 0 0 0 0
4 0 6.04559 0 0
5 0 5.972 0 0
6 0 0 0 0
7 0 0 0 0
8 0 6.28154 0 0
9 0 5.972 0 0
10 0 5 0 0
11 0 0 0 0
12 0 1.902 0 0
13 0 1.902 0 0
14 0 5.11727 0 0
15 0 3.98217 0 0
16 0 3.66469 0 0
17 4.7638 2.75011 0.191432 0
18 0 3.012 0 0
19 0 0.076 0 0
20 0 0 0.037991 0
21 0 0 0.51445 0
22 0 0 0.343642 0
23 -1.70264 -0.327922 0.811155 0
24 0 0 0.302052 0
25 0 0 -0.052641 0
26 0 0 -0.052641 0
27 -0.370853 -0.236138 1.97012 0
28 0 0 0.010079 0
29 0.803729 -0.768357 1.29818 0
30 0 0 0.343076 0
31 0 0 0.870477 0

Improper Coeffs # inversion/harmonic

1 0 0
2 1.18775 0
3 0 0
4 13.5247 0

Atoms # full

2239 3 3 0.06 17.394928215095238 1.0674077216307754 5.69097115650351 0 1 0
130 1 13 -0.72 25.5554880916811 3.33202261236992 1.2607546271682908 0 0 0
203 1 6 -0.06326 19.224880401343718 0.33092616698058436 2.078841994592378 0 0 0
353 1 3 0.06 10.196561933840648 11.389522693248049 2.488803672132348 0 0 0
139 1 2 0.12 10.869215194809687 5.1912024636171195 0.5121368758445661 0 0 0
311 1 3 0.06 10.58124064166763 9.61281664094933 2.517876940113872 0 0 0
424 1 3 0.06 9.360265667590975 6.397375960010364 1.2060194310208163 0 0 0
62 1 4 0.18 0.1351831310835609 4.979139114409884 1.0610985683992702 0 0 0
275 1 3 0.06 21.58347472243832 8.97894938244284 1.7782580208041567 0 0 0
30 1 3 0.06 3.790107809702597 -0.000553699712306812 4.2595168576468 0 0 0
2180 3 8 -0.12 4.782140004191165 1.2434931107198244 5.555186819651902 0 1 0
256 1 13 -0.72 13.996478485548554 0.32602468679680885 3.898517396140869 0 0 0
4548 5 3 0.06 0.5061971700634715 3.536924043012995 4.268320194075317 1 0 0
210 1 7 0.61 13.153902847486263 3.5484694704020137 1.0598068855121314 0 0 0
2138 3 3 0.06 5.731767811742512 3.1652528377820315 5.339139568067296 0 1 0
2108 3 3 0.06 4.806390187142858 0.32231880644530575 6.2375162437696945 0 1 0
490 1 9 0.06939 9.730597161508985 7.429859493670732 1.369635043767625 0 0 0
120 1 13 -0.72 23.305683104919787 0.9639460505848576 1.7201099487437472 0 0 0
436 1 3 0.06 7.9004023811984165 10.534219554047615 1.1437708195695715 0 0 0
161 1 3 0.06 19.489760346509435 1.6724939183647278 4.312565849452282 0 0 0
163 1 3 0.06 16.862937575696257 6.094941670933773 2.2146161968165012 0 0 0
302 1 3 0.06 25.84190796858467 5.944943788598611 4.007041030626533 0 0 0
888 1 10 -0.18 5.9372528255241415 9.62850466547616 3.694216414723591 0 0 0
876 1 3 0.06 5.337533543110894 8.704979890311366 3.973006905572228 0 0 0
149 1 3 0.06 18.978660700193874 0.9572782019844505 6.440562012226526 0 0 0
524 1 13 -0.72 13.522102452355735 11.775289697030704 3.617361487681284 0 0 0
499 1 10 -0.18 11.050018507489183 3.764084619103073 5.462820202943134 0 0 0
365 1 10 -0.18 9.713907319226092 10.33141024691725 2.4721888158845307 0 0 0
1193 2 3 0.06 17.76328332440718 3.737022913710071 1.7659732384087599 0 0 1
44 1 3 0.06 4.2403972895812 3.6139747083763822 0.16119998791745854 0 0 0
207 1 6 -0.06326 13.50800314725868 0.7344404685419768 6.694845618620667 0 0 0
18 1 3 0.06 3.7824816770355723 1.6234913981624124 5.668426359667555 0 0 0
839 1 3 0.06 20.646802563871663 12.351200145233896 6.247971757283696 0 0 0
1205 2 3 0.06 17.02061988315964 6.267844916701972 0.3220758973245325 0 0 1
2251 3 3 0.06 20.149014562851807 0.15521697888495156 4.629907615743704 0 1 0
370 1 8 -0.12 5.918006404594698 10.70677982556331 4.816430185902497 0 0 0
496 1 10 -0.18 20.07002356152929 9.331534841396273 4.111398287863839 0 0 0
127 1 13 -0.72 0.7101078465116154 2.7354449555813343 0.3229898190260045 0 0 0
506 1 11 -1.78 13.146457745386058 12.758074728190847 0.5604465672232577 0 0 0
4250 5 3 0.06 1.4296275199911668 3.4867323568145068 5.869220730412463 1 0 0
448 1 3 0.06 9.134356467917456 10.1462763778378 3.443884112312414 0 0 0
132 1 1 1.42 14.39704282207037 1.018435988144821 2.1175894332646976 0 0 0
400 1 2 0.12 15.31601310594421 7.644601586224824 0.8058253046118957 0 0 0
147 1 3 0.06 14.42668241198679 4.080305727794572 4.852396966651992 0 0 0
391 1 13 -0.72 22.919622527046126 12.35975840443865 1.216766235657799 0 0 0
2192 3 9 0.06939 4.626007627396694 0.7358894512821048 4.093571468619202 0 1 0
153 1 3 0.06 13.486713130846075 5.102488009529668 5.875932506274363 0 0 0
269 1 2 0.12 2.1114985196874274 7.626731713875571 0.07713240833182637 0 0 0
316 1 3 0.06 6.996202177300663 9.27790986742257 3.5380646728725496 0 0 0
304 1 3 0.06 6.100536442936931 10.150397047740633 5.783176524780771 0 0 0
329 1 5 -0.12 1.2718454054205202 7.064774269505743 0.5346343893809771 0 0 0
950 1 3 0.06 12.715448084550003 8.542953113277605 6.6654195105271885 0 0 0
254 1 13 -0.72 16.303878184416476 0.8407339565330862 1.8321059383211442 0 0 0
208 1 7 0.61 16.96359371512277 0.1274653351220504 0.9830433909942872 0 0 0
5011 5 3 0.06 25.008022750229475 9.252782409779732 6.798600350252539 0 0 0
16 1 3 0.06 24.93439423719814 5.58317794874349 6.402505589379433 0 0 0
151 1 3 0.06 18.73908002279864 5.261391132277888 1.6027194315286828 0 0 0
514 1 13 -0.72 14.130836292994765 9.939855126959653 0.9759032474737716 0 0 0
5 1 2 0.12 21.135803648365986 1.0024293153251798 2.925032799093722 0 0 0
229 1 9 0.06939 16.874682610894183 5.582036596712469 1.2071198000003138 0 0 0
445 1 3 0.06 11.11475700121079 2.9828346667418666 6.298070342520063 0 0 0
466 1 6 -0.06326 11.909698119398856 7.073640385832846 0.48846054867698063 0 0 0
189 1 3 0.06 10.969602490590976 4.669088182154505 6.025345460593086 0 0 0
827 1 3 0.06 23.166932173764504 11.519133300655707 7.000740399943153 0 0 0
219 1 8 -0.12 13.525749195679294 4.116294499191014 5.426689098533977 0 0 0
193 1 4 0.18 13.101704288503289 5.032394589199695 0.9171404265662159 0 0 0
1177 2 13 -0.72 3.294880351182472 0.7767056537074338 0.3007704367265269 0 0 1
231 1 9 0.06939 13.871548208979206 3.19344171124509 6.649148636876967 0 0 0
243 1 8 -0.12 12.286666949714393 3.763144981588765 4.584449848722446 0 0 0
8 1 2 0.12 24.107250716270944 5.430594365746139 0.9436168816514293 0 0 0
250 1 12 -0.12613 14.02585836578348 1.8857311244931851 6.102367840021395 0 0 0
460 1 5 -0.12 14.300910160748614 7.182138642511345 0.9075079010564306 0 0 0
457 1 4 0.18 12.305800270090225 12.340429314687466 5.604513848048001 0 0 0
255 1 13 -0.72 13.805033387287697 2.984344701118757 1.9314390103573897 0 0 0
299 1 3 0.06 9.459841239820259 10.201972284606649 0.24884825452779383 0 0 0
2286 3 4 0.18 8.232521657255955 0.11217803988459683 0.981088450633497 0 1 0
317 1 3 0.06 19.71205628972653 10.092350522785683 3.371983311234818 0 0 0
217 1 8 -0.12 18.031456156043177 4.550744136361465 1.1327893089901178 0 0 0
4506 5 3 0.06 1.636051081513314 4.849438777125373 4.723031115770225 1 0 0
60 1 4 0.18 5.440985476592437 0.4895296164533936 1.2766581495067448 0 0 0
191 1 4 0.18 18.464763084175992 0.14664091979537572 0.8962977625509383 0 0 0
502 1 8 -0.12 8.915968837794466 9.942364640265934 1.1619979342264681 0 0 0
266 1 1 1.42 24.804295805353913 12.160172422336473 1.5974113292489642 0 0 0
389 1 13 -0.72 25.293654394734784 10.240855001267038 1.3607348184206483 0 0 0
82 1 7 0.61 0.6786739688700304 0.11701628710074062 4.7051337020568615 0 0 0
384 1 13 -0.72 25.46396961337985 12.28990622332873 3.456549780806645 0 0 0
2 1 1 1.42 25.152002533801355 1.3872049832485849 1.7490270298758763 0 0 0
65 1 5 -0.12 20.56621252061961 0.7266943107743713 2.0511024861821117 0 0 0
248 1 12 -0.12613 15.503524538234613 5.035512349177285 1.1899879431349072 0 0 0
335 1 6 -0.06326 24.927431197766623 7.463965436575387 0.7539568939774276 0 0 0
453 1 4 0.18 18.158823992794083 12.8848886088585 0.5184503882446169 0 0 0
519 1 13 -0.72 16.110753056115232 12.528485725563506 1.5324695380128799 0 0 0
128 1 13 -0.72 25.708344306023747 1.1613944962365765 3.5614692646982884 0 0 0
487 1 3 0.06 10.11865598909834 3.730664440086418 4.817605676255554 0 0 0
347 1 8 -0.12 21.945080968941724 8.32225346594214 2.634615221547019 0 0 0
403 1 2 0.12 12.798675672533886 10.192402094670403 5.701726997351501 0 0 0
59 1 4 0.18 21.14232422362435 0.7156880226256258 0.8314955330554802 0 0 0
74 1 6 -0.06326 1.2085797526362023 5.658691513045496 0.43743680921928263 0 0 0
2323 3 9 0.06939 19.18143202494491 0.6407205901476061 4.392032357870247 0 1 0
433 1 3 0.06 12.348317956713387 2.764315907960604 4.049605600576268 0 0 0
165 1 3 0.06 14.863988539083365 3.327157447561226 7.127899025920928 0 0 0
472 1 7 0.61 13.110754017822941 9.311702341275662 0.6211425586794966 0 0 0
68 1 5 -0.12 25.01620454313362 6.053996000596982 0.6483500824264578 0 0 0
2668 3 3 0.06 7.516656420022265 0.7877765918646705 6.595508506421024 0 1 0
463 1 5 -0.12 12.692294018735835 11.158935551067316 6.297920760423558 0 0 0
177 1 3 0.06 12.218210980161171 4.381538716446647 3.7146926737932358 0 0 0
944 1 3 0.06 14.442181605190713 8.809448080425208 7.091508580322547 0 0 0
88 1 8 -0.12 25.116603091878112 4.759102888810191 5.675260302380591 0 0 0
287 1 3 0.06 23.96637838398027 8.703004688493074 3.0916981188553176 0 0 0
396 1 1 1.42 14.282381228221938 11.754124280256706 1.7312559466557915 0 0 0
412 1 3 0.06 7.685382830805674 8.148374629176864 1.684875650750892 0 0 0
293 1 3 0.06 23.604191435228095 6.977612699680031 2.8470039950042225 0 0 0
442 1 3 0.06 19.504447521593427 8.381325373971206 3.9789128179710955 0 0 0
2211 3 12 -0.12613 5.745626043494347 0.12724027067217217 3.677091941956099 0 1 0
305 1 3 0.06 22.162656528687986 9.943763711485818 4.051483502296094 0 0 0
4494 5 3 0.06 0.1322540936609332 5.383444598339033 6.695290284143135 1 0 0
1114 2 5 -0.12 6.061522403861098 0.6247479029833074 0.020963939132678085 0 0 1
4560 5 10 -0.18 0.9064516230062298 4.125862686581904 5.122905254805135 1 0 0
205 1 6 -0.06326 14.355561022194788 5.7705363266978935 0.9964486153290335 0 0 0
2150 3 3 0.06 7.663914228094839 1.4546559124295844 4.9379220243046085 0 1 0
4214 5 3 0.06 24.100963950101775 4.694084327870318 5.145103591763889 0 0 0
378 1 12 -0.12613 23.771073676863924 8.006993296681173 1.0503060568006368 0 0 0
100 1 9 0.06939 25.431629730380354 3.5196074221936757 6.601908387193036 0 0 0
359 1 9 0.06939 23.396379433925315 7.968412533714472 2.4501024767322153 0 0 0
2342 3 12 -0.12613 18.59198869594951 0.19003801825115368 3.2135288649634495 0 1 0
418 1 3 0.06 10.197222569812988 7.654319023769776 2.3580633559060686 0 0 0
280 1 3 0.06 7.726796280558985 11.296382456893237 3.6101606724884365 0 0 0
342 1 7 0.61 0.2863617222996314 9.320030250254499 1.0482918092197657 0 0 0
834 1 3 0.06 5.643128318238958 10.007720024108275 2.665347018918107 0 0 0
1329 2 3 0.06 21.445109229940154 7.37394723900582 2.3748018454587854 0 0 1
64 1 4 0.18 0.787497003408844 0.10044755586334808 6.253277732446409 0 0 0
822 1 3 0.06 4.840158858535374 11.034145252750239 4.963445848066767 0 0 0
1440 2 13 -0.72 1.1629513442954593 9.894803710381021 0.29409186084645084 0 0 1
371 1 8 -0.12 21.558670399963823 9.006361173526962 3.9245339335935094 0 0 0
2120 3 3 0.06 4.407979226922673 1.5472227988387774 3.386212193841558 0 1 0
478 1 8 -0.12 8.51354202028378 8.430386018096138 1.110972983512058 0 0 0
274 1 3 0.06 7.808682193936143 11.675692265492634 5.3004153394081435 0 0 0
346 1 8 -0.12 7.0899874551728645 11.70711763176306 4.465657526604573 0 0 0
2168 3 6 -0.06326 6.223761791698201 0.1091092544299073 2.387603300227789 0 1 0
430 1 3 0.06 21.94267984915856 8.40847893233815 4.821055594892485 0 0 0
475 1 7 0.61 12.58805795485014 12.468822713876861 4.1286022699103695 0 0 0
509 1 12 -0.12613 10.68725433498554 7.708261403208155 0.40666673828649524 0 0 0
484 1 3 0.06 19.99059683186665 9.639068024002443 5.147261773909078 0 0 0
2311 3 8 -0.12 18.324260716800648 0.4804495626483701 5.657381276384469 0 1 0
199 1 5 -0.12 11.907229809099803 5.654683714072551 0.5563047930729181 0 0 0
323 1 4 0.18 0.3584816951628594 7.8358535074707945 1.2616859928031108 0 0 0
326 1 4 0.18 0.4845881893447514 12.596282240672762 6.189532383995111 0 0 0
454 1 4 0.18 13.08581165540955 7.812818645934094 0.6417599405078933 0 0 0
78 1 7 0.61 3.943965876765706 0.16834746026988032 1.2518519804654036 0 0 0
77 1 7 0.61 22.605102838374986 0.41547500087867933 0.8428187995123252 0 0 0
2204 3 8 -0.12 5.860263622292321 2.264782750746719 5.915868968040027 0 1 0
1305 2 13 -0.72 10.325116757383793 0.8381308171516895 0.046465338551544944 0 0 1
252 1 13 -0.72 12.46885846352005 2.92886199528798 0.17264499367728292 0 0 0
2710 3 3 0.06 8.104773834791681 2.3408331060422256 6.403113142877789 0 1 0
28 1 3 0.06 24.445639441934237 3.404414062263242 7.0777855442420785 0 0 0
2722 3 10 -0.18 7.333472044121602 1.6445151659463093 5.956212715973678 0 1 0
2656 3 3 0.06 5.636872829025111 2.672106284599091 6.930802696443734 0 1 0
343 1 7 0.61 0.22797345265242458 12.81175225216253 4.680112862714409 0 0 0
748 1 3 0.06 10.82810248572207 7.167742996297125 7.14660614941295 0 0 0
339 1 7 0.61 3.745877092066363 12.84807844408477 0.9654900749614236 0 0 0
2305 3 7 0.61 9.76427386727554 0.16592111325599213 0.9751068350301865 0 1 0
1271 2 3 0.06 6.544072276097703 4.829036599958338 0.5980399200240167 0 0 1
4311 5 12 -0.12613 25.64510147684049 2.314718504638169 5.810348052517741 0 0 0
4268 5 6 -0.06326 25.802349859249777 1.1296246791268068 6.4747765560695525 0 0 0
4320 5 13 -0.72 0.17902555293952532 1.1446482817249295 4.179914255436333 1 0 0
322 1 4 0.18 5.331418967464042 12.866358949627271 0.753048884659224 0 0 0
1565 2 13 -0.72 12.027414472813094 9.867447715941866 0.14590649489577118 0 0 1
406 1 3 0.06 8.227933393598052 8.199108497331768 0.10325447635802418 0 0 0
1104 2 3 0.06 5.46989500922263 6.062395856426109 0.05575509553215193 0 0 1
696 1 3 0.06 10.297864049318083 1.74002705460528 11.754063178869124 0 0 0
785 1 13 -0.72 12.170318340558984 2.7268393559688713 14.651876056234782 0 0 0
990 1 6 -0.06326 12.014472644603467 6.782050186454776 14.721494165426066 0 0 0
527 1 1 1.42 24.834882126917343 0.7684353204599326 12.31812446088922 0 0 0
1016 1 9 0.06939 13.423683921239492 8.660212000859724 7.536387876410199 0 0 0
2780 3 3 0.06 7.169016122086682 0.34146941827050886 10.208821010839564 0 1 0
5089 5 8 -0.12 24.600399364801863 7.788899694481207 9.175922271547794 0 0 0
535 1 3 0.06 21.644896117724677 1.7848783648437443 9.649774702701848 0 0 0
631 1 8 -0.12 21.864215524158897 3.7224767394280383 10.422062642683391 0 0 0
871 1 8 -0.12 21.398140667665302 7.903743691134895 14.698567812413575 0 0 0
4767 5 3 0.06 22.366360663452244 7.878510628549029 8.977563970297622 0 0 0
533 1 2 0.12 25.425941464493878 1.8080406974614667 8.415837046395232 0 0 0
843 1 3 0.06 2.6782974717125585 5.932062301394055 9.079756662201296 0 0 0
598 1 6 -0.06326 1.1285832347061218 5.503073205116427 14.328309630312503 0 0 0
593 1 5 -0.12 25.683757978474034 0.9438094128116069 7.868485559164671 0 0 0
2865 3 12 -0.12613 8.132202177462307 0.2703894889220942 11.985689687300306 0 1 0
101 1 10 -0.18 21.10151370136086 4.982412488206541 10.777208080726245 0 0 0
994 1 7 0.61 16.522566817530013 12.338767673313784 13.139100244071242 0 0 0
883 1 9 0.06939 22.97784911914369 7.962796990981403 14.572162194164125 0 0 0
532 1 2 0.12 23.91605619020397 4.664639831337463 12.839977153877069 0 0 0
1002 1 8 -0.12 9.706641522293515 8.067642792580912 13.500830564308464 0 0 0
877 1 3 0.06 7.077482577321711 9.385178237373395 11.676182200786318 0 0 0
159 1 3 0.06 13.036197551396164 3.213138225893685 7.413370965137744 0 0 0
1030 1 11 -1.78 13.022331045801598 12.599896355188681 13.2890011058104 0 0 0
999 1 7 0.61 12.652448126282133 12.41798324181189 9.801781686899435 0 0 0
924 1 2 0.12 14.127572388566163 7.229741060681949 12.096167171868577 0 0 0
617 1 3 0.06 2.625646216017199 7.713426637436209 9.162948096258276 0 0 0
1044 1 13 -0.72 12.3290311274205 9.661998514643482 14.586904672398454 0 0 0
547 1 3 0.06 19.824011530709036 2.7772148084288095 11.711226254047757 0 0 0
563 1 3 0.06 0.6124198051231022 6.6080148963525245 10.37981399379559 0 0 0
1047 1 13 -0.72 13.62279329709533 9.473096912912373 12.754348060578822 0 0 0
909 1 13 -0.72 22.868129986026243 12.102558680929903 11.932040332549416 0 0 0
619 1 9 0.06939 20.019787294203823 1.9729938384541685 10.919317181216234 0 0 0
803 1 3 0.06 21.225466356298263 10.482344948418756 8.31071689092913 0 0 0
997 1 7 0.61 12.894801883733193 8.972867024772382 13.693230862264826 0 0 0
553 1 3 0.06 19.161535208959414 1.6771567371603442 10.313514767242358 0 0 0
762 1 8 -0.12 9.818807852202463 2.4549302420114527 11.17337426426009 0 0 0
962 1 3 0.06 11.214083930465682 8.245588037575427 9.329785482006054 0 0 0
972 1 3 0.06 8.604723388643365 10.198818973649011 11.803808749030624 0 0 0
166 1 3 0.06 9.281569888163741 3.1624573502112825 11.750714336483531 0 0 0
664 1 2 0.12 13.765924455332106 1.6659173907337743 8.595142433969883 0 0 0
616 1 3 0.06 16.290804803039933 6.0117740235681225 8.019024690827532 0 0 0
974 1 3 0.06 11.539271090891736 5.634937211320003 7.874252567577406 0 0 0
687 1 3 0.06 16.40435252000035 4.771544978108909 13.087300469934428 0 0 0
777 1 13 -0.72 13.772198220269615 0.5027562411298678 10.823857277496264 0 0 0
960 1 3 0.06 7.88252436824 8.953368250583438 13.958901449274109 0 0 0
910 1 13 -0.72 24.961072917789316 9.504797255264258 12.608237135430011 0 0 0
628 1 10 -0.18 16.687064582447128 5.752387773513216 9.031949610055312 0 0 0
853 1 5 -0.12 1.077376936378659 6.948465763617975 14.417842722156488 0 0 0
4755 5 3 0.06 24.617274315085638 6.884868155797436 9.822362532903806 0 0 0
659 1 1 1.42 14.070645875641686 0.7356971244220157 12.765438429653628 0 0 0
35 1 3 0.06 22.30517600350186 3.324441878963173 11.407191115713452 0 0 0
5035 5 3 0.06 23.221343323264815 6.970266007331199 7.662730826000889 0 0 0
5023 5 3 0.06 24.611237034486084 8.6863204782395 9.81400001539977 0 0 0
4809 5 3 0.06 23.278594382678428 8.731532988753715 7.69011758077631 0 0 0
550 1 3 0.06 3.8667892904972843 5.627500409905614 13.640336689783412 0 0 0
805 1 3 0.06 20.945189422148882 6.886304114583575 14.62693072745546 0 0 0
978 1 4 0.18 12.716000942831391 7.479172194149814 13.662691060621984 0 0 0
977 1 4 0.18 18.00185918769058 12.150493454374157 13.328267945759514 0 0 0
575 1 3 0.06 2.1290152869642256 6.825115489407245 7.687860447970253 0 0 0
1026 1 8 -0.12 8.282289283596645 8.403543694557571 13.130020345511712 0 0 0
885 1 9 0.06939 0.21556786845275433 9.302828597961716 9.178390306352018 0 0 0
708 1 3 0.06 11.528841768068245 3.716947866784321 11.066984818996096 0 0 0
864 1 7 0.61 3.6751730955844217 12.570547979431367 14.101841517665589 0 0 0
845 1 4 0.18 20.729254634595076 12.673835629754198 12.920287295111894 0 0 0
681 1 3 0.06 16.290812645278066 6.148333324649298 11.877365142523907 0 0 0
859 1 6 -0.06326 24.57052732495398 6.739011877416202 13.269724912788826 0 0 0
787 1 1 1.42 24.63454324513533 11.474958651804473 12.12814926636514 0 0 0
970 1 3 0.06 7.314928357247807 11.967678475881224 8.18519447568319 0 0 0
753 1 9 0.06939 16.031659122337377 5.060644251511923 12.082366913694653 0 0 0
655 1 13 -0.72 25.05011524930936 0.28104547248638967 10.475151555544304 0 0 0
799 1 3 0.06 20.970987540876386 8.590438814159397 14.006250621867961 0 0 0
607 1 8 -0.12 20.99223523091968 2.580358130795746 9.899080214753516 0 0 0
980 1 4 0.18 12.367205467476056 12.26410372024362 8.38595515744886 0 0 0
729 1 6 -0.06326 13.84311719594686 5.454502896650005 12.988362469114156 0 0 0
902 1 12 -0.12613 23.247129156232152 7.272121433480493 13.338688358460086 0 0 0
735 1 7 0.61 13.019254842727133 3.2819378406231463 13.892862664375825 0 0 0
592 1 5 -0.12 24.767678638676273 5.407659063838563 12.859214000528745 0 0 0
562 1 3 0.06 15.360805701097501 4.0518994470673295 9.40216444913582 0 0 0
765 1 8 -0.12 16.386810116317562 4.373085601850149 9.62803404112888 0 0 0
984 1 5 -0.12 13.636610523605018 6.816645544428876 12.899508076892152 0 0 0
706 1 3 0.06 9.907393857459418 6.33979085664529 8.426474879900601 0 0 0
1035 1 12 -0.12613 13.158839205331226 9.90222869037762 8.250870997251312 0 0 0
2822 3 6 -0.06326 7.236957503910908 -0.06699202943026553 12.901043708472475 0 1 0
813 1 3 0.06 0.3958031737260583 9.438117279941775 10.262628743841514 0 0 0
694 1 3 0.06 11.848723341681492 6.719343677909136 9.960049657119034 0 0 0
846 1 4 0.18 5.20262687997699 12.66133973932556 14.060376007639926 0 0 0
717 1 4 0.18 13.129732559715737 4.782430940902596 13.959668870567857 0 0 0
772 1 12 -0.12613 14.658062896417746 4.85241884087567 12.074664921399759 0 0 0
992 1 6 -0.06326 12.701438752401868 11.08380728974664 7.715688343387434 0 0 0
782 1 13 -0.72 13.830643819591224 2.6445206338713754 13.147065465932604 0 0 0
1046 1 13 -0.72 10.115228465347085 11.803739346098453 14.057868041229765 0 0 0
2626 3 2 0.12 5.340417481955728 0.6995905845023831 12.222761105885622 0 1 0
622 1 9 0.06939 3.5722668239392776 5.2841225792005035 14.698383705118689 0 0 0
911 1 13 -0.72 25.29388325865404 11.676310514775713 10.315855351246006 0 0 0
678 1 3 0.06 6.816408470092159 1.7298050868864472 11.182907764793722 0 0 0
711 1 3 0.06 17.71458267522609 6.013825034924824 9.097743272560498 0 0 0
881 1 9 0.06939 20.799810900281518 12.285324439903597 9.644947424725412 0 0 0
893 1 8 -0.12 22.460288374783854 12.119740430315693 7.540899259188532 0 0 0
938 1 3 0.06 13.94784132222459 7.7525488737152575 9.359338500748322 0 0 0
2686 3 5 -0.12 5.8769207571290645 0.24190593854099401 13.0415419912998 0 1 0
811 1 3 0.06 23.241759115877624 9.076158882084028 14.436541870053995 0 0 0
565 1 3 0.06 22.701762032396754 3.8354407157085855 9.682220172582838 0 0 0
595 1 6 -0.06326 20.025086453144514 0.21330194083700302 12.604970071119395 0 0 0
577 1 3 0.06 20.661517740612606 5.449357708577329 9.853892551956918 0 0 0
5065 5 8 -0.12 25.882514777318004 7.909470266052146 8.357686305504954 0 0 0
601 1 7 0.61 3.7348028471431602 -0.028403127383804377 14.171652187168828 0 0 0
1037 1 13 -0.72 15.904083193443055 11.653964266459077 12.248681135079124 0 0 0
831 1 3 0.06 0.18633468556830163 5.882098571852781 8.783963426865101 0 0 0
907 1 13 -0.72 1.060153889628214 9.622358760525941 14.275020528503035 0 0 0
930 1 3 0.06 10.245589738526395 9.013318180413213 13.505853247711935 0 0 0
869 1 8 -0.12 21.739282269491227 11.388002623947848 8.738478504245048 0 0 0
889 1 10 -0.18 8.164861868923488 9.174590577363931 11.81078764575769 0 0 0
669 1 3 0.06 16.49537655569994 3.118210096281028 11.353361091570742 0 0 0
648 1 13 -0.72 0.858925757913778 2.6728215780307476 14.689174694862064 0 0 0
1004 1 8 -0.12 13.24963179044973 7.5318182847371045 8.573335592456296 0 0 0
1045 1 13 -0.72 13.339231856761254 11.507201842121301 10.33774169137692 0 0 0
661 1 2 0.12 17.993032913739448 0.5248858246109892 11.929750793405328 0 0 0
699 1 3 0.06 16.983924121369512 3.6775906775582037 9.001255376776303 0 0 0
544 1 3 0.06 4.1873692570729935 3.2645668984826797 14.252228742884318 0 0 0
574 1 3 0.06 16.162538826873895 6.5031066135194955 9.600185906472007 0 0 0
675 1 3 0.06 17.828529443332066 4.252797141754009 11.292571956854538 0 0 0
932 1 3 0.06 13.617041410867094 6.584331744977402 8.092373399630432 0 0 0
923 1 2 0.12 18.085864386929757 11.094114072920611 11.442141394020434 0 0 0
89 1 3 0.06 21.8323229659184 5.635390399203567 11.341524041644877 0 0 0
983 1 5 -0.12 18.66087963577734 11.628302355672478 12.21713079025799 0 0 0
1028 1 8 -0.12 11.805410750731111 7.406111021416985 9.081999825087841 0 0 0
919 1 1 1.42 13.946438016934376 11.314606425166579 12.200807822520657 0 0 0
936 1 3 0.06 10.131928253682915 7.386557920319684 12.727061658621388 0 0 0
897 1 8 -0.12 0.6460509825448796 6.7353708573755595 9.268223007249764 0 0 0
2637 3 3 0.06 20.389671885635035 3.092314962396637 9.1793895542608 0 1 0
900 1 12 -0.12613 20.555622225853348 11.423802290781628 10.800111079929929 0 0 0
440 1 3 0.06 9.066433941118737 11.750362627619033 7.859176205736654 0 0 0
750 1 9 0.06939 7.6248378929048775 1.027452076674198 10.906127596078548 0 0 0
494 1 10 -0.18 8.323027536117245 12.1202569544619 8.553926348586241 0 0 0
4821 5 10 -0.18 23.26801313927219 7.831102072870918 8.36910466028117 0 0 0
741 1 8 -0.12 16.739599644656117 4.178128046786104 11.0776800083498 0 0 0
5091 5 11 -1.78 25.73013680649787 12.614390705175424 13.328886281091819 0 0 0
47 1 3 0.06 20.294062236589166 4.894554921914171 11.512543022526422 0 0 0
823 1 3 0.06 7.744081349861678 7.485117911514833 13.072279998560326 0 0 0
638 1 12 -0.12613 20.657451520405992 0.9685490889748762 11.683676091098075 0 0 0
995 1 7 0.61 9.501413812972686 12.693814631802152 13.382430306566166 0 0 0
819 1 3 0.06 1.1948318203942616 9.568994719573597 8.750484793636321 0 0 0
724 1 5 -0.12 13.445131166373839 0.7188041139258755 8.08030978300073 0 0 0
482 1 3 0.06 8.376172340907717 11.662544502303332 9.533504469626635 0 0 0
835 1 3 0.06 8.593161148213 8.762642829497297 10.902508588794262 0 0 0
784 1 13 -0.72 15.959661966838873 0.39796227080048774 13.057692573596738 0 0 0
976 1 4 0.18 8.010371533106106 12.720836999040868 13.51762533020919 0 0 0
760 1 10 -0.18 10.954680467723467 6.56553115711386 8.116026291108442 0 0 0
220 1 3 0.06 10.454444652988432 3.9746260221400145 9.656186918995832 0 0 0
738 1 8 -0.12 8.873727637816977 1.5914634471858222 10.275602038852693 0 0 0
721 1 5 -0.12 18.613529089400526 0.04141326035493342 12.678472534986762 0 0 0
645 1 13 -0.72 25.14800176830284 2.6561883795692767 12.47504932584795 0 0 0
921 1 1 1.42 11.939563236397904 11.579234709371745 14.448683195102678 0 0 0
5057 5 7 0.61 25.620908121084792 9.046689069964648 13.563313850228868 0 0 0
650 1 13 -0.72 22.99673743360409 0.26745536023447125 12.713206184766603 0 0 0
5039 5 4 0.18 25.67920028339788 7.580303482667077 13.54030540247633 0 0 0
857 1 6 -0.06326 20.015163854281013 11.899724506797904 11.941218431937198 0 0 0
2768 3 3 0.06 8.533705272635522 2.292038227915313 9.532358138263277 0 1 0
797 1 3 0.06 22.53768129632645 11.092136159373137 9.437902834822422 0 0 0
232 1 10 -0.18 10.895098335416444 3.1837039929780984 10.359667579831553 0 0 0
178 1 3 0.06 11.403684876144347 2.554125496021451 9.636117520030066 0 0 0
584 1 4 0.18 5.216236339574345 0.1195516694213717 14.291093012637724 0 0 0
982 1 5 -0.12 7.4251834272906985 11.879886078976199 14.494184370227584 0 0 0
863 1 7 0.61 22.234580877749394 12.723881914475742 12.857788847234138 0 0 0
666 1 3 0.06 9.537366210368639 0.9500769288366163 9.658785978759969 0 0 0
629 1 10 -0.18 2.0977541874070247 6.793149913180827 8.801002001892224 0 0 0
815 1 3 0.06 19.824100957442187 12.560013331709133 9.068554819069663 0 0 0
775 1 13 -0.72 9.905075696684216 0.32219263073913396 14.710741015568015 0 0 0
948 1 3 0.06 9.512830037370948 6.458351655341593 14.699660378451425 0 0 0
793 1 2 0.12 1.8539863152319604 7.62668236368035 14.733484353963636 0 0 0
989 1 6 -0.06326 18.7601060593209 12.815592812292904 14.331152742844301 0 0 0
5077 5 9 0.06939 25.887278420421012 9.164309743611069 7.40110908643931 0 0 0
747 1 3 0.06 4.546569500353059 5.263083347349431 17.642908748858662 0 0 0
894 1 8 -0.12 5.884172380778899 10.730717205137084 18.915274691154874 0 0 0
744 1 3 0.06 7.3397291420126844 3.494589078156956 21.498066413745573 0 0 0
1039 1 13 -0.72 11.83701694268166 12.277069028734648 16.373514814208246 0 0 0
4243 5 3 0.06 24.737681239844605 8.799372400101069 18.751307164871577 0 0 0
634 1 8 -0.12 4.236633525262484 3.4243003196908175 16.318474332671403 0 0 0
868 1 7 0.61 0.15865469476721855 12.460078431057548 17.583393738251047 0 0 0
349 1 8 -0.12 2.468335719353712 8.269361096246572 22.075365805813277 0 0 0
2244 3 3 0.06 8.955606116601606 0.8651216567860471 21.229632379585677 0 1 0
1020 1 10 -0.18 19.256492902446098 8.187466994372812 16.081092194201293 0 0 0
1033 1 12 -0.12613 11.03551790690871 7.391550725525947 15.44805052912202 0 0 0
942 1 3 0.06 9.096843076800944 8.024707575768602 15.567339029739891 0 0 0
2113 3 3 0.06 20.817635762292618 0.46217698356639947 20.782175455500056 0 1 0
901 1 12 -0.12613 5.546692093323057 10.886556564719 15.731193604002295 0 0 0
298 1 3 0.06 5.360757949087016 10.362317632166137 19.824711341288793 0 0 0
922 1 2 0.12 8.035301078439055 11.369178197720471 15.210800237982507 0 0 0
495 1 10 -0.18 19.82353899090379 12.239723580637607 17.874031662189118 0 0 0
380 1 12 -0.12613 0.9116787634917232 10.111399945554322 21.773582701229817 0 0 0
69 1 5 -0.12 1.1985574882406311 0.5924893597246097 21.065147914384923 0 0 0
783 1 13 -0.72 11.931461470672957 0.32446902734172195 16.7925882172145 0 0 0
580 1 3 0.06 6.072592211602622 4.309213233957831 17.361857155241772 0 0 0
480 1 8 -0.12 11.214393619515189 8.36570624139371 21.435952238630968 0 0 0
456 1 4 0.18 12.779933040330246 12.553458837129686 21.05031567612773 0 0 0
882 1 9 0.06939 6.34525022478874 9.928353037045536 16.52033826747183 0 0 0
4297 5 10 -0.18 24.868565995800665 7.783170429602008 19.21053706666681 0 0 0
5048 5 5 -0.12 25.538445276039347 11.922570597750367 19.05469414356171 0 0 0
683 1 3 0.06 10.314469247121437 3.0209717633866298 18.82458102957905 0 0 0
957 1 3 0.06 14.302098945015224 2.637404318177532 18.80836765323195 0 0 0
649 1 13 -0.72 0.2571935241098016 0.6888942075920976 16.960068275647252 0 0 0
600 1 6 -0.06326 0.8152062894803177 0.6878884159472959 19.774931495283294 0 0 0