LAMMPS data file via write_data, version 29 Sep 2021, timestep = 601000

8384 atoms
13 atom types
9088 bonds
15 bond types
16896 angles
26 angle types
24576 dihedrals
31 dihedral types
1536 impropers
4 improper types

1.9403726064554085 49.762939393544414 xlo xhi
3.160272172498807 48.543041827500545 ylo yhi
3.8587773777184893 47.84453662227726 zlo zhi
-9.846828793997968 -6.442709510238647 -5.6691268392070455 xy xz yz

Masses

1 65.38
2 1.0079
3 1.0079
4 12.0107
5 12.0107
6 12.0107
7 12.0107
8 12.0107
9 12.0107
10 12.0107
11 15.9994
12 15.9994
13 15.9994

Pair Coeffs # buck6d/coul/gauss/long

1 50784 2.62009 5731.71 39.9418 0.341054
2 3680 4 32.805 0.106908 0.977155
3 3680 4 32.805 0.106908 0.977155
4 10304 3.06122 457.18 4.52185 0.608002
5 10304 3.06122 457.18 4.52185 0.60801
6 10304 3.06122 457.18 4.52185 0.60801
7 10304 3.09278 429.894 3.91702 0.608002
8 4968 2.94118 280.225 7.91687 0.60801
9 4968 2.94118 280.225 7.91687 0.60801
10 4968 2.94118 280.225 7.91687 0.60801
11 10856 3.2967 308.776 1.60225 0.632701
12 10856 3.2967 308.776 1.60225 0.632728
13 10856 3.2967 308.776 1.60225 0.632701

Dihedral Coeffs # opls

1 0 0 0 0
2 0 0 0 0
3 0 0 0 0
4 0 6.04559 0 0
5 0 5.972 0 0
6 0 0 0 0
7 0 0 0 0
8 0 6.28154 0 0
9 0 5.972 0 0
10 0 5 0 0
11 0 0 0 0
12 0 1.902 0 0
13 0 1.902 0 0
14 0 5.11727 0 0
15 0 3.98217 0 0
16 0 3.66469 0 0
17 4.7638 2.75011 0.191432 0
18 0 3.012 0 0
19 0 0.076 0 0
20 0 0 0.037991 0
21 0 0 0.51445 0
22 0 0 0.343642 0
23 -1.70264 -0.327922 0.811155 0
24 0 0 0.302052 0
25 0 0 -0.052641 0
26 0 0 -0.052641 0
27 -0.370853 -0.236138 1.97012 0
28 0 0 0.010079 0
29 0.803729 -0.768357 1.29818 0
30 0 0 0.343076 0
31 0 0 0.870477 0

Improper Coeffs # inversion/harmonic

1 0 0
2 1.18775 0
3 0 0
4 13.5247 0

Atoms # full

1071 2 3 0.06 22.923055286881215 7.584251924777163 7.5724461988200815 0 0 1
323 1 4 0.18 2.244682902731812 12.559397785017325 5.190241859917472 0 0 0
478 1 8 -0.12 9.6110141156617 10.652684736530809 6.327114360045318 0 0 0
353 1 3 0.06 7.480142839714368 11.902230974125425 8.896550200107885 0 0 0
2150 3 3 0.06 8.563299418907508 7.175293070431275 9.420614816628543 0 1 0
502 1 8 -0.12 9.131354235845091 11.450494956410003 7.592635965114118 0 0 0
153 1 3 0.06 16.8773465169053 6.713271011752612 9.722345205280241 0 0 0
80 1 7 0.61 4.58244424086891 9.124927556073928 4.427360803288878 0 0 0
3173 4 3 0.06 23.272436827960984 8.290659958632665 5.904017115770105 0 1 1
454 1 4 0.18 14.100514575375383 11.93422065440349 7.331164458560592 0 0 0
2180 3 8 -0.12 10.083140003180887 4.530890129472535 8.016416159333048 0 1 0
256 1 13 -0.72 16.745441377616864 4.720795630077387 5.281209996658272 0 0 0
62 1 4 0.18 4.165007388095725 10.49149890530089 4.6273105424612435 0 0 0
4785 5 5 -0.12 1.2466230563582648 2.9494683467918583 8.966891863319727 1 0 0
4200 5 2 0.12 4.558914465844698 10.562860674355832 6.764677199674052 1 0 0
34 1 3 0.06 0.7514347272584092 5.883619172687951 9.737709747899585 0 0 0
229 1 9 0.06939 18.384189624208688 9.796446302924553 6.491535924247426 0 0 0
2291 3 4 0.18 15.30715251958221 3.1002072068258077 6.243925715383099 0 1 0
1235 2 3 0.06 19.31224947818285 8.242732890600454 9.541537966090191 0 0 1
311 1 3 0.06 7.5221354086588645 10.278260757090763 8.064482211169341 0 0 0
448 1 3 0.06 7.042858631012031 11.781005669457459 7.185957087329161 0 0 0
208 1 7 0.61 20.05039938386351 5.639440588323218 3.885491634212869 0 0 0
4570 5 12 -0.12613 2.69448020595637 12.495068599494028 7.459557021609939 1 0 0
299 1 3 0.06 9.837338946745103 11.15520819327618 8.444165046238137 0 0 0
119 1 12 -0.12613 1.7069408149610772 5.140213525820338 8.04447197881877 0 0 0
1086 2 3 0.06 19.441630537183197 11.302900399722137 8.602222481066196 0 0 1
4467 5 3 0.06 2.2330580007109577 10.738726198013739 9.318448271825364 1 0 0
205 1 6 -0.06326 16.17828499990157 10.833507372566267 6.671700369119716 0 0 0
391 1 13 -0.72 20.452062334982966 12.825357218781873 4.999230808506762 0 0 0
65 1 5 -0.12 22.81432195891874 3.2586423776053457 4.948222296028724 0 0 0
2232 3 2 0.12 12.763158459263622 5.468863740933071 4.746342539993685 0 1 0
2168 3 6 -0.06326 10.661855306292203 6.046736131370222 4.783467338643 0 1 0
101 1 10 -0.18 21.51127394655133 3.6226553750938457 9.53590998408308 0 0 0
165 1 3 0.06 17.88923926211301 4.587813637560256 9.39668911471243 0 0 0
445 1 3 0.06 13.14670142651031 6.03331862945778 8.585655437328784 0 0 0
177 1 3 0.06 15.209421698320336 7.716272017840666 8.325632674484888 0 0 0
4320 5 13 -0.72 3.695630612462374 5.556555566936241 6.776957669611116 1 0 0
2211 3 12 -0.12613 10.13489947804967 5.189923120374994 5.659266138745393 0 1 0
250 1 12 -0.12613 16.694247176253754 3.9936816637152486 7.804808066817014 0 0 0
163 1 3 0.06 18.48213436426522 9.580487300400907 5.388289288407298 0 0 0
76 1 6 -0.06326 2.061527642633869 3.8500593314292244 8.276160298302518 0 0 0
132 1 1 1.42 17.36621589306688 6.254261214153608 4.517192175645061 0 0 0
340 1 7 0.61 19.64184145171846 13.601635276905224 4.360978080314528 0 0 0
4312 5 13 -0.72 1.9153097935147423 6.825586267732369 4.74380226400811 1 0 0
189 1 3 0.06 14.133035123937283 4.95200869010497 9.387870498338904 0 0 0
2192 3 9 0.06939 10.899748122594845 5.221597410183273 6.9241369001071 0 1 0
4485 5 3 0.06 4.487402012925468 12.645746858946346 8.480379821433072 1 0 0
231 1 9 0.06939 16.889425930873422 4.682377304752059 9.024688357643814 0 0 0
30 1 3 0.06 11.144755152080828 6.254417060571356 7.213535113836064 0 0 0
2308 3 7 0.61 15.908251661371118 3.7977631240772762 5.019130905962745 0 1 0
4527 5 6 -0.06326 3.0701408160362944 11.999314074508913 6.2318576749869745 1 0 0
47 1 3 0.06 20.517513660469522 4.058530758622973 9.364890542125053 0 0 0
64 1 4 0.18 3.274184770313591 3.4405185044040545 7.785126647985756 0 0 0
412 1 3 0.06 9.581174452627643 9.554993091036605 6.444632162899433 0 0 0
4250 5 3 0.06 0.3034081944692215 10.287326395296876 8.009014779182586 1 0 0
490 1 9 0.06939 11.062069096465509 10.884807812489875 5.87822003301158 0 0 0
424 1 3 0.06 11.197162320089738 11.887321842918936 5.434597314527037 0 0 0
2108 3 3 0.06 10.801846557166044 4.139454043638165 8.876983402022555 0 1 0
321 1 4 0.18 18.53724095210341 14.215904298753493 5.07834974661563 0 0 0
2138 3 3 0.06 8.073625023321654 5.0413395084182415 8.091374543558821 0 1 0
139 1 2 0.12 13.47427220857559 8.981976305894236 5.742428526389898 0 0 0
466 1 6 -0.06326 13.329294102517158 10.803896229808405 6.817875571815874 0 0 0
4260 5 5 -0.12 4.01254224315398 10.967805938008016 5.8971330416234125 1 0 0
207 1 6 -0.06326 15.696476203341447 3.0945621875545 7.624709981327481 0 0 0
1162 2 12 -0.12613 24.093653917404016 6.306799188037264 6.408679856651044 0 0 1
2292 3 5 -0.12 11.973445140644241 6.0697852860769865 4.257447352300849 0 1 0
243 1 8 -0.12 15.20770517661342 6.572495034118899 8.319759987543877 0 0 0
365 1 10 -0.18 7.672332056746668 11.314011699604805 7.993150184947287 0 0 0
4539 5 8 -0.12 3.3266418467843804 10.88756628531656 9.253182904154091 1 0 0
4194 5 1 1.42 3.889835270973212 6.623861886435266 5.195738133381787 1 0 0
400 1 2 0.12 16.133833955579266 12.805458045142363 7.298484511662207 0 0 0
460 1 5 -0.12 15.485294205265609 11.899728812634601 7.226003527431004 0 0 0
4322 5 13 -0.72 4.438348112132871 8.39855538078504 5.432266825442395 1 0 0
255 1 13 -0.72 16.312747108589594 7.732959696060183 5.4027398429727365 0 0 0
219 1 8 -0.12 16.639790892341583 6.135609021308337 8.808046801587153 0 0 0
2204 3 8 -0.12 8.92269939138149 5.2387115087123775 8.679591721377868 0 1 0
2120 3 3 0.06 11.869152957258219 4.621718310181313 6.7762925554482765 0 1 0
217 1 8 -0.12 19.793131920845315 9.962553149334303 7.096008644486692 0 0 0
193 1 4 0.18 15.441566887336846 9.82379136384493 5.989891358850995 0 0 0
82 1 7 0.61 4.098203720194367 4.360233774605191 6.982287925446723 0 0 0
509 1 12 -0.12613 11.969408260503876 10.655415739296107 6.971687051431505 0 0 0
2780 3 3 0.06 5.9253140225775685 3.104299097303075 9.106008070327277 0 1 0
499 1 10 -0.18 14.060083318442842 6.026075563493439 9.156066791012737 0 0 0
1119 2 6 -0.06326 23.209203858677757 5.415010042195794 5.863502808216813 0 0 1
1565 2 13 -0.72 12.251991015142982 13.560157841366884 7.050182309748444 0 0 1
2251 3 3 0.06 19.17993577237708 3.5037906685974383 4.798037420961176 0 1 0
4280 5 8 -0.12 0.5046022974160103 7.210568978161353 7.989311535798325 1 0 0
147 1 3 0.06 17.30730407897728 6.508671970919901 8.02832435529863 0 0 0
248 1 12 -0.12613 17.529307018211377 10.930243425280407 6.722250732657351 0 0 0
175 1 3 0.06 20.98208373727648 10.515205413979071 8.73901668785411 0 0 0
4479 5 3 0.06 2.966836035920983 13.167985090328854 9.323250905517504 1 0 0
950 1 3 0.06 12.454154318608403 12.047309526976441 9.619279431886103 0 0 0
199 1 5 -0.12 14.032140352139336 9.82971686925821 6.1122379882172435 0 0 0
210 1 7 0.61 16.041574351201007 8.897770146609147 5.006712171937863 0 0 0
254 1 13 -0.72 19.301703562765343 6.295621901022993 4.620559514768146 0 0 0
203 1 6 -0.06326 21.533929232334685 3.6572715390814157 4.541823730967228 0 0 0
2222 3 13 -0.72 7.801304306165725 5.387525902737468 4.6485011869479225 0 1 0
1245 2 5 -0.12 21.94569669770079 5.8255858204704385 5.397589548302678 0 0 1
2099 3 1 1.42 6.144562498270053 4.509354010249913 4.780073056318074 0 1 0
342 1 7 0.61 0.9154994304976283 13.157731814452033 5.465199414511288 0 0 0
932 1 3 0.06 11.431663680753925 9.591934790958419 9.808715808361217 0 0 0
2710 3 3 0.06 10.173832976993339 6.960950146038911 9.079087316804358 0 1 0
1289 2 8 -0.12 19.88436603527628 10.305155635412028 8.556687273854081 0 0 1
472 1 7 0.61 13.452517300986946 13.289210883722404 7.450641854351692 0 0 0
59 1 4 0.18 23.66470770498222 4.1309257802971535 5.532305517369916 0 0 0
4292 5 9 0.06939 0.5711646459948545 5.763603004353467 8.642238499015642 1 0 0
1098 2 3 0.06 18.027059019320955 9.459929356287113 9.433999977153633 0 0 1
2227 3 13 -0.72 5.2358739318621295 3.941983901862849 6.457908350612499 0 1 0
389 1 13 -0.72 23.606131800210967 11.698764094520612 4.615917131270754 0 0 0
191 1 4 0.18 21.102846604829796 4.958382489249587 4.706316920409328 0 0 0
1333 2 3 0.06 16.712427309792268 12.29184712770416 3.896055488311314 0 0 1
577 1 3 0.06 22.16149177027886 4.4570278654068005 9.17511806768389 0 0 0
777 1 13 -0.72 12.662625708019572 2.4522622321018255 9.705998456158163 0 0 0
1205 2 3 0.06 17.90916040653456 8.90150415244582 6.900066867919506 0 0 1
433 1 3 0.06 15.033957250983143 6.285549543223326 7.30725796550256 0 0 0
1440 2 13 -0.72 0.6595913463111065 14.030937484398432 4.599862236588697 0 0 1
18 1 3 0.06 9.774161165619752 3.5689998235912825 7.507255342377201 0 0 0
266 1 1 1.42 22.373843052073124 13.034096011546971 5.139196437757093 0 0 0
4551 5 9 0.06939 3.464889625946356 12.3248183471103 8.674842287032149 1 0 0
406 1 3 0.06 8.948945431913021 10.925045376298751 5.525212719486439 0 0 0
384 1 13 -0.72 22.759690924667986 13.019825345483936 7.104383681136875 0 0 0
5521 6 3 0.06 3.654401632500552 10.094697700434663 8.550426078686424 1 0 1
938 1 3 0.06 13.067031973272925 9.500376131295729 9.957269210886206 0 0 0
418 1 3 0.06 11.350420383610535 10.15946024807553 5.074862188736475 0 0 0
22 1 3 0.06 1.431204349663795 7.778039384906786 8.178597607766859 0 0 0
436 1 3 0.06 9.286114760854318 12.515455966512754 7.359439754092378 0 0 0
1185 2 2 0.12 21.5040594339372 6.803098729828395 5.668402466229503 0 0 1
1143 2 9 0.06939 23.648989346422752 7.689541066265899 6.797735531617066 0 0 1
1193 2 3 0.06 20.422901324066885 10.670898904198122 6.466285911848994 0 0 1
708 1 3 0.06 5.240447969841816 5.643844013317056 9.384040349489776 0 0 0
4581 5 13 -0.72 0.04796246793503656 12.792702458664117 6.30784242988625 1 0 0
159 1 3 0.06 16.201870806224342 4.283889346384408 9.685031289383758 0 0 0
2722 3 10 -0.18 9.145381566665975 6.743874946878341 8.667548226536349 0 1 0
77 1 7 0.61 25.09785899742229 3.6909179985781932 5.784839367638442 0 0 0
151 1 3 0.06 20.390844344137623 8.995537542417287 6.963065220009708 0 0 0
1152 2 10 -0.18 19.16721499519532 9.338641191056698 9.577302392258549 0 0 1
2668 3 3 0.06 9.015700920937256 7.214627356093829 7.686748270855859 0 1 0
1923 2 3 0.06 14.02832313812912 12.555137052343566 3.9953124148822203 0 0 1
2656 3 3 0.06 8.751192194618554 4.746417170807662 9.621401925078061 0 1 0
60 1 4 0.18 9.645848420314525 6.8191545267462335 4.160781713678378 0 0 0
487 1 3 0.06 13.926237036117332 6.582661459329439 10.043827904723305 0 0 0
6411 7 13 -0.72 1.7242619181807144 4.739180787009175 3.9128956493059857 1 1 0
4208 5 3 0.06 0.5855355639581035 7.149507120350879 6.877269887356217 1 0 0
329 1 5 -0.12 2.5115032126078862 12.146989048669386 3.875750130325895 0 0 0
78 1 7 0.61 8.191137789907607 6.363066556335532 3.88066279567592 0 0 0
568 1 3 0.06 5.709068819279755 4.260184866856374 15.926345749362032 0 0 0
4285 5 3 0.06 15.467875066561499 11.056331485267897 16.06866814285209 0 0 0
992 1 6 -0.06326 10.844253042633154 13.285744911166669 11.346347494950601 0 0 0
1045 1 13 -0.72 10.322891088833718 12.253376375915314 13.662996999101408 0 0 0
220 1 3 0.06 6.130680080376029 6.479767704516845 10.908923954930987 0 0 0
629 1 10 -0.18 1.3627511540822783 6.4925909590520945 12.438583765501916 0 0 0
592 1 5 -0.12 21.804993252852817 6.353268363505582 16.145968225771664 0 0 0
867 1 7 0.61 -0.9197053241881505 12.352804710918733 15.186401960237855 0 0 0
897 1 8 -0.12 1.2056417330383773 8.008048026844284 12.207692461714103 0 0 0
741 1 8 -0.12 15.478025397386823 5.808918738259749 15.44550222265659 0 0 0
809 1 3 0.06 15.206368429870992 12.723415163016321 12.956008078209258 0 0 0
799 1 3 0.06 19.45345859457174 6.1106739154091505 14.342177364648728 0 0 0
645 1 13 -0.72 22.65113706958746 4.089387661220377 14.928772621577183 0 0 0
4497 5 3 0.06 4.951116064022099 11.22622742473049 10.511656937291129 1 0 0
586 1 4 0.18 0.3311243132287509 4.469551148401642 15.252460449258079 0 0 0
785 1 13 -0.72 10.16864085191067 4.385413380891533 12.916255431850606 0 0 0
661 1 2 0.12 17.25047342059767 3.1584670210695993 11.672106258529539 0 0 0
750 1 9 0.06939 5.73631837639963 2.8054374670298925 10.191051096820651 0 0 0
881 1 9 0.06939 15.972706681312188 12.397003537058843 13.708987164134678 0 0 0
666 1 3 0.06 5.944087364088641 3.1207043664419665 12.266828069840962 0 0 0
1140 2 3 0.06 19.620395395214533 9.570531922815672 10.529825330422698 0 0 1
885 1 9 0.06939 -0.3205058247042283 9.935730873306447 11.674252542572116 0 0 0
178 1 3 0.06 4.429976100463369 6.773096099468484 10.613814508524275 0 0 0
729 1 6 -0.06326 12.447856869758894 6.571981775216746 14.698629509775165 0 0 0
1016 1 9 0.06939 12.340839173070757 11.507865607068977 10.586839735035701 0 0 0
706 1 3 0.06 14.162098956792251 9.374738374608704 12.718752475276256 0 0 0
813 1 3 0.06 0.29731884552905696 10.089037486647998 10.899366704848493 0 0 0
2833 3 7 0.61 9.975285905661998 1.815152381682999 15.43774363309951 0 1 0
1028 1 8 -0.12 12.179660687588397 9.260051983802576 11.937921153119154 0 0 0
859 1 6 -0.06326 21.564757864695537 7.749805312725634 15.933624508126556 0 0 0
966 1 3 0.06 19.67623542658669 6.18252346192953 10.543603059564258 0 0 0
4509 5 3 0.06 2.985180661750528 12.3792090967012 11.680354052209477 1 0 0
617 1 3 0.06 0.9465169544596227 6.207103237326592 13.451033174671405 0 0 0
904 1 12 -0.12613 0.00544577582443706 10.794492178690074 12.816609696011565 0 0 0
428 1 3 0.06 6.53081488994731 7.29141728289966 13.729418051465528 0 0 0
803 1 3 0.06 16.84947875357603 11.014843666618662 12.193617646441123 0 0 0
747 1 3 0.06 4.524500031053398 2.6727969858175955 14.087364096186414 0 0 0
657 1 1 1.42 9.847793567922544 2.3854615114627387 12.795778694817189 0 0 0
873 1 8 -0.12 -0.29971156955024014 8.488135074146818 12.12898413644027 0 0 0
527 1 1 1.42 22.79413503987422 2.555727128918601 13.799605726270222 0 0 0
699 1 3 0.06 15.99313530795434 3.7516243026085436 15.997437039724725 0 0 0
733 1 7 0.61 15.074619059271356 2.4063412067252923 13.237567124732228 0 0 0
910 1 13 -0.72 21.23333291910191 10.522874150627898 16.384991660872913 0 0 0
940 1 3 0.06 4.793318471126215 10.01563259555724 15.416676023082745 0 0 0
332 1 5 -0.12 -0.20483542658118825 12.782562046525763 11.514660654907878 0 0 0
787 1 1 1.42 20.938676166909655 12.40306287831486 15.96685831349054 0 0 0
669 1 3 0.06 15.019171891371503 5.92762241686628 16.381943473838962 0 0 0
958 1 3 0.06 5.120180227180875 8.135233897653336 13.006175185032275 0 0 0
817 1 3 0.06 19.695922465007595 9.003803240242906 13.553511300813929 0 0 0
4795 5 7 0.61 23.28881930300442 4.442688394821451 15.99357746011322 0 0 0
765 1 8 -0.12 16.5323685073239 4.659888399379994 15.703474248313364 0 0 0
4755 5 3 0.06 23.20269241099446 7.498229810268658 13.485247767634144 0 0 0
797 1 3 0.06 18.041229342442595 11.747074150021225 13.43804604045072 0 0 0
801 1 3 0.06 -0.7607492453572506 8.495255412031362 13.129214129892466 0 0 0
974 1 3 0.06 12.96048124688878 9.388758024186865 13.959287520716353 0 0 0
902 1 12 -0.12613 20.396556311132812 8.224014408945852 15.451460268623839 0 0 0
1004 1 8 -0.12 12.235307563302827 9.971907530795967 10.524024903660443 0 0 0
440 1 3 0.06 7.47047882176869 9.611120563347345 14.499552279855912 0 0 0
563 1 3 0.06 1.8134318187026839 8.125946069692107 11.243538769975558 0 0 0
723 1 5 -0.12 10.240687208833593 5.581135246810812 15.233004772136505 0 0 0
869 1 8 -0.12 17.172123115649832 11.96099460290599 12.842921519100956 0 0 0
990 1 6 -0.06326 10.174491968587562 6.494997440836843 16.275347564496272 0 0 0
962 1 3 0.06 12.36450837502821 8.17880002076062 11.77032574603928 0 0 0
1008 1 3 0.06 20.82465103057487 7.154360478707897 11.658640258152925 0 0 0
532 1 2 0.12 21.044091692936167 5.682780655044527 15.67210317637819 0 0 0
648 1 13 -0.72 1.2078115364557258 2.2815522489848945 15.264330737554076 0 0 0
934 1 3 0.06 4.931076087433773 6.925943927532378 15.375411266295808 0 0 0
815 1 3 0.06 15.51091282786237 11.516686147823695 14.2693653638956 0 0 0
232 1 10 -0.18 5.253689213250358 6.018537520946275 10.482652751746294 0 0 0
829 1 3 0.06 18.182099940878178 7.65896648928519 11.963427060621562 0 0 0
999 1 7 0.61 9.455839574233476 13.077530545743645 13.277552842910927 0 0 0
2882 3 13 -0.72 11.256616186038842 1.6456043436610572 15.653381310894476 0 1 0
831 1 3 0.06 1.6956033616134119 8.527895606846007 13.04808314634385 0 0 0
696 1 3 0.06 4.926460042561856 5.1929712485698305 12.488491745290702 0 0 0
693 1 3 0.06 5.885655594497377 2.5629507424579714 16.206425080761967 0 0 0
970 1 3 0.06 5.940846988906385 10.271960687227049 13.817281213332416 0 0 0
735 1 7 0.61 11.310780360368565 4.903601426443253 13.09269663585059 0 0 0
562 1 3 0.06 17.142535979749063 4.613896246291884 14.82322171597206 0 0 0
678 1 3 0.06 4.710214322912469 2.4037692321701285 10.39780737320429 0 0 0
655 1 13 -0.72 23.865623220821092 2.9378831246937973 12.210582898535753 0 0 0
760 1 10 -0.18 13.176194757773086 9.739746348126346 12.959748872727781 0 0 0
4511 5 3 0.06 15.490041307181844 9.273352610720885 16.061325080878277 0 0 0
272 1 2 0.12 0.15603933662271197 12.178556227548567 10.68902877395032 0 0 0
675 1 3 0.06 16.104154040576372 6.659534888919568 15.136398937030803 0 0 0
2768 3 3 0.06 7.027446911499679 4.097745957513433 11.183799951992713 0 1 0
4622 5 3 0.06 4.076441558304969 9.685239852174778 10.83086689297587 1 0 0
663 1 2 0.12 9.402987490238248 4.9373479573082095 15.037129625169337 0 0 0
954 1 3 0.06 17.90701505931751 6.014191889801986 12.303882808800957 0 0 0
772 1 12 -0.12613 13.57489004770964 6.554262364374793 13.915080792406682 0 0 0
762 1 8 -0.12 4.90259863229464 4.847885011090709 11.428307524159418 0 0 0
782 1 13 -0.72 12.327733676914718 4.886684164019144 12.292957262346142 0 0 0
603 1 7 0.61 0.6384759215189504 3.161131988403217 14.557994262432176 0 0 0
919 1 1 1.42 10.61816295747036 11.60113203835346 15.564196564449693 0 0 0
5103 5 13 -0.72 -1.6020892063183347 11.306590194818417 15.059155641055346 1 0 0
883 1 9 0.06939 20.098762798646653 8.063272738144269 14.068520177073076 0 0 0
4688 5 10 -0.18 3.2064505740760287 11.302730605301235 11.869326896388252 1 0 0
598 1 6 -0.06326 1.0626012791831263 4.909423360381593 16.377037303688066 0 0 0
1035 1 12 -0.12613 11.134296425290788 11.968939451821393 11.254614843081352 0 0 0
811 1 3 0.06 21.14863464263528 7.889336206686419 13.70156192996902 0 0 0
4634 5 3 0.06 2.2328069065165663 10.868417552342354 12.024307739945938 1 0 0
805 1 3 0.06 18.014740624410027 7.210589028284943 14.423808937093296 0 0 0
166 1 3 0.06 3.935187651823835 4.384320493910383 11.17719029271572 0 0 0
1024 1 8 -0.12 5.8684214511719 8.145744552255385 13.880303901987004 0 0 0
944 1 3 0.06 13.141484501699733 11.853079290543436 11.28726745076213 0 0 0
871 1 8 -0.12 18.981109523937242 7.046082346174949 13.88604912000185 0 0 0
705 1 3 0.06 3.653955395578313 2.013957717279026 15.41875111431605 0 0 0
494 1 10 -0.18 6.663472109588033 9.48803624170471 13.724611583925237 0 0 0
694 1 3 0.06 11.12984236778354 9.513624573482264 12.39005999913254 0 0 0
687 1 3 0.06 15.059661977091592 5.086506691182271 13.403053178361459 0 0 0
984 1 5 -0.12 12.267960999272523 7.5656764083134975 15.66281215238868 0 0 0
659 1 1 1.42 12.812304110552564 3.133830717302348 11.505838683635808 0 0 0
748 1 3 0.06 13.145045720057366 10.84904552093133 13.034517077172513 0 0 0
717 1 4 0.18 11.380309561176366 5.6684392151482506 14.388615748820348 0 0 0
738 1 8 -0.12 5.985056492693891 3.780400233566345 11.346138032885124 0 0 0
681 1 3 0.06 13.881853839164316 4.543893859456961 14.66268381793865 0 0 0
759 1 10 -0.18 4.103306993996213 2.9333211518900875 15.052851268712827 0 0 0
843 1 3 0.06 0.721030159699702 5.893238269001344 11.751796930686538 0 0 0
784 1 13 -0.72 14.687670268259481 2.922707881707143 12.172696254315357 0 0 0
753 1 9 0.06939 14.471296098192369 5.412691327447425 14.293178849945736 0 0 0
895 1 8 -0.12 18.616260758954105 6.788473263399441 12.415275209951735 0 0 0
4676 5 3 0.06 3.670839211808916 11.26339640847377 12.874274230529807 1 0 0
1000 1 8 -0.12 5.325616457644735 7.978275218117647 15.279478630408523 0 0 0
1020 1 10 -0.18 19.953507599240012 6.430131995114609 11.618494316957687 0 0 0
911 1 13 -0.72 21.738977118457143 12.746969275137099 14.014560015480141 0 0 0
946 1 3 0.06 3.4729824994827863 8.99254892659567 15.31994962781614 0 0 0
721 1 5 -0.12 17.42274667688286 2.3909609411791397 12.383588071025706 0 0 0
841 1 3 0.06 20.351355709460247 5.492954801865674 11.94387144172867 0 0 0
482 1 3 0.06 7.092899137846433 9.434541683939248 12.685331549961907 0 0 0
363 1 10 -0.18 16.60866033086204 13.415355804835214 10.713748582547453 0 0 0
861 1 6 -0.06326 -0.2647204158091796 12.159255730360137 12.790516471655353 0 0 0
924 1 2 0.12 13.107839842836206 8.219743511270051 15.704874786190814 0 0 0
893 1 8 -0.12 17.681160728373612 13.013478962622615 11.797082354641997 0 0 0
1012 1 9 0.06939 4.466911652585495 9.082643532039402 15.750641290547874 0 0 0
580 1 3 0.06 3.2984760346292976 3.608513600996128 14.785397623130937 0 0 0
928 1 3 0.06 6.002807773245246 7.993148858623531 16.141862287792044 0 0 0
575 1 3 0.06 2.4414372042464922 6.240272255269233 12.503171000012653 0 0 0
4563 5 8 -0.12 3.9909265208415583 10.768385710590074 10.657108586976952 1 0 0
807 1 3 0.06 22.49816058896375 9.824371679633725 13.93236832116043 0 0 0
827 1 3 0.06 18.62534311946057 12.717961934827162 11.31125367889424 0 0 0
1037 1 13 -0.72 12.254958509453008 12.392408594445373 16.3582275746588 0 0 0
1043 1 13 -0.72 6.074460140019149 12.452408961545059 16.112189530259634 0 0 0
715 1 4 0.18 16.504416442405358 2.065218908158024 13.378549965892628 0 0 0
2877 3 13 -0.72 14.2498682736438 2.208052824920847 14.273474273191681 0 1 0
1047 1 13 -0.72 11.026482353517508 9.76949851579165 15.812099937632814 0 0 0
89 1 3 0.06 21.67537175715626 3.6442393298061804 10.600197499578503 0 0 0
5023 5 3 0.06 22.860003328935953 8.524494830888909 12.109717287477663 0 0 0
849 1 4 0.18 -0.4720474691305321 13.009708224724843 13.908559258470234 0 0 0
634 1 8 -0.12 5.0645400944649275 3.344081236121238 16.19585040322547 0 0 0
4499 5 3 0.06 17.789081597789824 10.113721484993965 15.867813297367695 0 0 0
839 1 3 0.06 16.09157684366663 12.554304012816836 10.26833149208198 0 0 0
4481 5 3 0.06 16.10583815863698 9.319637653127154 19.226689121095262 0 0 0
426 1 3 0.06 3.8593984771610668 9.778095361225446 21.526195345151564 0 0 0
998 1 7 0.61 8.075707670084855 12.372986668748062 19.98196484177009 0 0 0
683 1 3 0.06 11.932026924228182 1.8695753143495768 18.965172163773204 0 0 0
936 1 3 0.06 8.18269801411916 4.621671881533711 18.617363533600297 0 0 0
701 1 3 0.06 14.096914200891687 4.982376974207082 18.873578943781453 0 0 0
636 1 8 -0.12 22.249874363211266 6.247073291249345 20.12145254434791 0 0 0
4572 5 12 -0.12613 17.92602248706296 8.966213339197962 20.14229572318935 0 0 0
4415 5 3 0.06 13.002429171016955 2.0551308835491033 22.3357036042707 0 0 0
767 1 8 -0.12 13.072371569462915 5.233078656010294 19.332062141971786 0 0 0
4738 5 3 0.06 21.686467529332468 4.489777744085935 18.79577720788336 0 0 0
4373 5 3 0.06 13.371021388233844 1.1724204564757525 20.81048052624081 0 0 0
4536 5 7 0.61 16.06779762787085 10.425084411884065 22.091935980836077 0 0 0
5284 6 3 0.06 15.566523655059404 1.9299099835695535 22.160174886589473 0 0 0
172 1 3 0.06 3.6171783169885336 1.2621985261167725 21.436662377497576 0 0 0
907 1 13 -0.72 -0.5310637047152555 8.258636308180362 18.393953195023446 0 0 0
969 1 3 0.06 13.853624636890075 7.024999265198945 20.102467603632757 0 0 0
4243 5 3 0.06 15.100626912440916 10.225318413702471 17.537276584257565 0 0 0
826 1 3 0.06 21.52033361576812 6.999036883012904 20.57559143693117 0 0 0
556 1 3 0.06 2.7222472509348203 4.762873032493325 18.590649163486432 0 0 0
4553 5 9 0.06939 16.997454562062345 8.724774556083108 19.08607608724453 0 0 0
1044 1 13 -0.72 9.482489747157043 9.0821992716234 17.35624032819016 0 0 0
865 1 7 0.61 -0.995914121635761 7.975352225034941 17.253571005172844 0 0 0
987 1 5 -0.12 6.8165621058143335 11.283488200242957 21.77085198733067 0 0 0
948 1 3 0.06 10.286877975523057 5.683746885540154 18.74302134581049 0 0 0
184 1 3 0.06 1.0808676969289006 1.073486997971946 21.02061838128141 0 0 0
743 1 8 -0.12 12.479805328594026 3.970713119911653 19.777287870547752 0 0 0
995 1 7 0.61 5.849400917760077 11.492246416777343 16.90658375725633 0 0 0
912 1 13 -0.72 0.2804389231090094 10.82584192716845 20.245939529115656 0 0 0
774 1 12 -0.12613 11.1582907003122 3.3932630560106736 17.860991112416258 0 0 0
988 1 6 -0.06326 3.7777571710243625 10.322294809306932 17.76392880090239 0 0 0
182 1 3 0.06 1.5363748406604287 8.495639086082177 21.18203229414897 0 0 0
793 1 2 0.12 1.2482153006019405 6.4119947085151345 17.83049252824849 0 0 0
315 1 3 0.06 12.054295171696957 9.05598017461 19.26414371766145 0 0 0
899 1 11 -1.78 -1.9205567610369307 11.346947618159938 18.228107523446504 0 0 0
864 1 7 0.61 1.0445726226478875 11.624953551845 19.63505995387859 0 0 0
236 1 10 -0.18 1.744786173132975 7.491652460356807 21.60457942064572 0 0 0
4565 5 8 -0.12 17.264653487362246 10.095246773060037 16.84162886855109 0 0 0
972 1 3 0.06 6.77763281257611 6.8748926874246425 21.14369143812569 0 0 0
930 1 3 0.06 7.110832203661298 6.085963052245727 18.883487516971392 0 0 0
2815 3 4 0.18 9.298467444395285 2.2253793469455427 16.717206000381793 0 1 0
4835 5 12 -0.12613 21.64541633330136 2.959194011068674 20.391337294450746 0 0 0
982 1 5 -0.12 4.224796170131476 12.596430093178144 18.372164918380065 0 0 0
2244 3 3 0.06 3.4723362998780174 3.76811775233377 22.308156324219294 0 1 0
921 1 1 1.42 8.491522578614827 10.737069470408478 17.775638815894396 0 0 0
2290 3 4 0.18 8.421351679103921 1.4458785076362102 19.337799649667335 0 1 0
4427 5 10 -0.18 13.459882892285474 1.150958665039063 21.865691811780113 0 0 0
544 1 3 0.06 5.14067189914984 3.662205066952067 18.37539726571501 0 0 0
689 1 3 0.06 13.099409587315314 2.710442671661835 18.012482413522854 0 0 0
835 1 3 0.06 8.07788692895668 6.879696981319315 22.360106114339327 0 0 0
4469 5 3 0.06 18.697909564701806 8.740225102875218 17.681590345481695 0 0 0
610 1 8 -0.12 4.3352126973798715 3.542474521864575 17.56454476457344 0 0 0
852 1 5 -0.12 2.8028807182040985 10.239194500901496 18.804054708698047 0 0 0
142 1 3 0.06 2.2358258506979536 4.061649629429801 21.248113795817154 0 0 0
4841 5 13 -0.72 22.926549950039057 1.5296435852251546 18.21655262263949 0 0 0
713 1 3 0.06 12.248206869407461 6.756041846066884 20.619357927176907 0 0 0
1046 1 13 -0.72 6.627793122160705 10.555629040504094 17.241460520884054 0 0 0
875 1 3 0.06 12.931999576928376 10.465094430863257 20.086817010919372 0 0 0
1031 1 12 -0.12613 4.102368996661054 9.099005771160913 17.234719994905724 0 0 0
238 1 8 -0.12 2.9919863553630317 1.9945736888138814 20.8926639053497 0 0 0
690 1 3 0.06 3.5992194346373476 2.3913815318835736 20.045082135376624 0 0 0
538 1 3 0.06 3.8032273574450315 2.6569312937472356 17.887635831311925 0 0 0
1026 1 8 -0.12 8.324523397676158 5.568007722360429 20.611794495676175 0 0 0
4792 5 6 -0.06326 21.250971769496058 1.6331894996096115 20.536051980502325 0 0 0
792 1 2 0.12 2.2238210246364933 9.307247170258888 18.86252143848433 0 0 0
889 1 10 -0.18 7.8220787067384805 6.84186908937877 21.220501902144697 0 0 0
4517 5 4 0.18 17.329809830778878 11.014920570437136 21.481707399685003 0 0 0
2263 3 3 0.06 15.449290997561556 1.481693154083386 19.371863577510666 0 1 0
641 1 12 -0.12613 2.1482583269841564 4.152959411428084 16.707545971027443 0 0 0
1011 1 3 0.06 13.636486038494512 5.878539700258308 21.42138315853905 0 0 0
4744 5 3 0.06 -0.0636308749316381 1.8764636665623389 17.940148807292555 1 0 0
5084 5 10 -0.18 -1.0121499991875442 4.619570044747894 20.93324577565189 1 0 0
492 1 9 0.06939 4.637602725950069 9.267451908681451 22.066829638823002 0 0 0
927 1 2 0.12 7.11291921433579 10.29596716771447 21.40694980878805 0 0 0
345 1 8 -0.12 10.97746061262939 11.005734157031043 21.846755366123215 0 0 0
273 1 3 0.06 10.869280657108146 12.007018164369235 21.48980899135245 0 0 0
1039 1 13 -0.72 8.0669210794247 11.17509008207847 19.56233828684388 0 0 0
5030 5 3 0.06 -0.9103295468583301 4.408019238088201 22.022720236065748 1 0 0