LAMMPS (29 Sep 2021)
clear
units real
boundary p p p
atom_style full


neighbor 2.0 bin


# ------------------------ MOF-FF FORCE FIELD ------------------------------


pair_style buck6d/coul/gauss/long     0.9000     0.9000    12.0000
box tilt large
dihedral_style opls
improper_style inversion/harmonic
read_data 		C4_222.data
Reading data file ...
  orthogonal box = (0.0000000 0.0000000 0.0000000) to (51.703312 51.703314 51.703314)
  2 by 4 by 7 MPI processor grid
  reading atoms ...
  8384 atoms
  scanning bonds ...
  4 = max bonds/atom
  scanning angles ...
  6 = max angles/atom
  scanning dihedrals ...
  36 = max dihedrals/atom
  scanning impropers ...
  2 = max impropers/atom
  reading bonds ...
  9088 bonds
  reading angles ...
  16896 angles
  reading dihedrals ...
  24576 dihedrals
  reading impropers ...
  1536 impropers
Finding 1-2 1-3 1-4 neighbors ...
  special bond factors lj:    0        0        0       
  special bond factors coul:  0        0        0       
     4 = max # of 1-2 neighbors
    12 = max # of 1-3 neighbors
    24 = max # of 1-4 neighbors
    22 = max # of special neighbors
  special bonds CPU = 0.003 seconds
  read_data CPU = 0.068 seconds
include			parameters.dat.txt

pair_coeff     1     1           50784       2.6200873       5731.7134        39.94184      0.34105377    # buck6d->(zn4_o4@zn4o)|Zn4O_benz/gaussian->(zn4_o4@zn4o)|Zn4O_benz <--> buck6d->(zn4_o4@zn4o)|Zn4O_benz/gaussian->(zn4_o4@zn4o)|Zn4O_benz
pair_coeff     1     2       13670.593       3.1662269       495.43572       2.8200727      0.45538243    # buck6d->(zn4_o4@zn4o)|Zn4O_benz/gaussian->(zn4_o4@zn4o)|Zn4O_benz <--> buck6d->(h1_c1@ph)|benzene/gaussian->(h1_c1@ph)|benzene
pair_coeff     1     3       13670.593       3.1662269       495.43572       2.8200727      0.45538243    # buck6d->(zn4_o4@zn4o)|Zn4O_benz/gaussian->(zn4_o4@zn4o)|Zn4O_benz <--> buck6d->(h1_c1@me)|butane/gaussian->(h1_c1@me)|butane
pair_coeff     1     4       22875.278       2.8235294       1648.4078        14.02027      0.42066066    # buck6d->(zn4_o4@zn4o)|Zn4O_benz/gaussian->(zn4_o4@zn4o)|Zn4O_benz <--> buck6d->(c3_c2h1@ph)|benzene/gaussian->(c3_c3@ph)|Zn4O_benz
pair_coeff     1     5       22875.278       2.8235294       1648.4078        14.02027      0.42066187    # buck6d->(zn4_o4@zn4o)|Zn4O_benz/gaussian->(zn4_o4@zn4o)|Zn4O_benz <--> buck6d->(c3_c2h1@ph)|benzene/gaussian->(c3_c2h1@ph)|benzene
pair_coeff     1     6       22875.278       2.8235294       1648.4078        14.02027      0.42066187    # buck6d->(zn4_o4@zn4o)|Zn4O_benz/gaussian->(zn4_o4@zn4o)|Zn4O_benz <--> buck6d->(c3_c2o1@ph)|ph-O-butyl/gaussian->(c3_c2o1@ph)|ph-O-butyl
pair_coeff     1     7       22875.278       2.8368794       1602.4086       13.124311      0.42066066    # buck6d->(zn4_o4@zn4o)|Zn4O_benz/gaussian->(zn4_o4@zn4o)|Zn4O_benz <--> buck6d->(c3_c1o2@co2)|Zn4O_benz/gaussian->(c3_c1o2@co2)|Zn4O_benz
pair_coeff     1     8       15883.794       2.7713626       1280.1071       18.202956      0.42066187    # buck6d->(zn4_o4@zn4o)|Zn4O_benz/gaussian->(zn4_o4@zn4o)|Zn4O_benz <--> buck6d->(c4_c2h2@me)|butane/gaussian->(c4_c2h2@me)|butane
pair_coeff     1     9       15883.794       2.7713626       1280.1071       18.202956      0.42066187    # buck6d->(zn4_o4@zn4o)|Zn4O_benz/gaussian->(zn4_o4@zn4o)|Zn4O_benz <--> buck6d->(c4_c1h2o1@me)|ph-O-butyl/gaussian->(c4_c1h2o1@me)|ph-O-butyl
pair_coeff     1    10       15883.794       2.7713626       1280.1071       18.202956      0.42066187    # buck6d->(zn4_o4@zn4o)|Zn4O_benz/gaussian->(zn4_o4@zn4o)|Zn4O_benz <--> buck6d->(c4_c1h3@me)|butane/gaussian->(c4_c1h3@me)|butane
pair_coeff     1    11       23480.015        2.919708       1383.9296       8.7719648      0.42456807    # buck6d->(zn4_o4@zn4o)|Zn4O_benz/gaussian->(zn4_o4@zn4o)|Zn4O_benz <--> buck6d->(o4_zn4@zn4o)|Zn4O_benz/gaussian->(o4_zn4@zn4o)|Zn4O_benz
pair_coeff     1    12       23480.015        2.919708       1383.9296       8.7719648      0.42457209    # buck6d->(zn4_o4@zn4o)|Zn4O_benz/gaussian->(zn4_o4@zn4o)|Zn4O_benz <--> buck6d->(o2_c2@eth)|ph-O-butyl/gaussian->(o2_c2@eth)|ph-O-butyl
pair_coeff     1    13       23480.015        2.919708       1383.9296       8.7719648      0.42456807    # buck6d->(zn4_o4@zn4o)|Zn4O_benz/gaussian->(zn4_o4@zn4o)|Zn4O_benz <--> buck6d->(o2_c1zn1@co2)|Zn4O_benz/gaussian->(o2_c1zn1@co2)|Zn4O_benz
pair_coeff     2     2            3680               4          32.805      0.10690769       0.9771554    # buck6d->(h1_c1@ph)|benzene/gaussian->(h1_c1@ph)|benzene <--> buck6d->(h1_c1@ph)|benzene/gaussian->(h1_c1@ph)|benzene
pair_coeff     2     3            3680               4          32.805      0.10690769       0.9771554    # buck6d->(h1_c1@ph)|benzene/gaussian->(h1_c1@ph)|benzene <--> buck6d->(h1_c1@me)|butane/gaussian->(h1_c1@me)|butane
pair_coeff     2     4       6157.8178       3.4682081       129.19572      0.78772886      0.73005908    # buck6d->(h1_c1@ph)|benzene/gaussian->(h1_c1@ph)|benzene <--> buck6d->(c3_c2h1@ph)|benzene/gaussian->(c3_c3@ph)|Zn4O_benz
pair_coeff     2     5       6157.8178       3.4682081       129.19572      0.78772886      0.73006542    # buck6d->(h1_c1@ph)|benzene/gaussian->(h1_c1@ph)|benzene <--> buck6d->(c3_c2h1@ph)|benzene/gaussian->(c3_c2h1@ph)|benzene
pair_coeff     2     6       6157.8178       3.4682081       129.19572      0.78772886      0.73006542    # buck6d->(h1_c1@ph)|benzene/gaussian->(h1_c1@ph)|benzene <--> buck6d->(c3_c2o1@ph)|ph-O-butyl/gaussian->(c3_c2o1@ph)|ph-O-butyl
pair_coeff     2     7       6157.8178       3.4883721        124.7792      0.72632262      0.73005908    # buck6d->(h1_c1@ph)|benzene/gaussian->(h1_c1@ph)|benzene <--> buck6d->(c3_c1o2@co2)|Zn4O_benz/gaussian->(c3_c1o2@co2)|Zn4O_benz
pair_coeff     2     8       4275.7736       3.3898305       102.89611       1.0848184      0.73006542    # buck6d->(h1_c1@ph)|benzene/gaussian->(h1_c1@ph)|benzene <--> buck6d->(c4_c2h2@me)|butane/gaussian->(c4_c2h2@me)|butane
pair_coeff     2     9       4275.7736       3.3898305       102.89611       1.0848184      0.73006542    # buck6d->(h1_c1@ph)|benzene/gaussian->(h1_c1@ph)|benzene <--> buck6d->(c4_c1h2o1@me)|ph-O-butyl/gaussian->(c4_c1h2o1@me)|ph-O-butyl
pair_coeff     2    10       4275.7736       3.3898305       102.89611       1.0848184      0.73006542    # buck6d->(h1_c1@ph)|benzene/gaussian->(h1_c1@ph)|benzene <--> buck6d->(c4_c1h3@me)|butane/gaussian->(c4_c1h3@me)|butane
pair_coeff     2    11       6320.6076       3.6144578       103.50278      0.44181916      0.75107727    # buck6d->(h1_c1@ph)|benzene/gaussian->(h1_c1@ph)|benzene <--> buck6d->(o4_zn4@zn4o)|Zn4O_benz/gaussian->(o4_zn4@zn4o)|Zn4O_benz
pair_coeff     2    12       6320.6076       3.6144578       103.50278      0.44181916      0.75109952    # buck6d->(h1_c1@ph)|benzene/gaussian->(h1_c1@ph)|benzene <--> buck6d->(o2_c2@eth)|ph-O-butyl/gaussian->(o2_c2@eth)|ph-O-butyl
pair_coeff     2    13       6320.6076       3.6144578       103.50278      0.44181916      0.75107727    # buck6d->(h1_c1@ph)|benzene/gaussian->(h1_c1@ph)|benzene <--> buck6d->(o2_c1zn1@co2)|Zn4O_benz/gaussian->(o2_c1zn1@co2)|Zn4O_benz
pair_coeff     3     3            3680               4          32.805      0.10690769       0.9771554    # buck6d->(h1_c1@me)|butane/gaussian->(h1_c1@me)|butane <--> buck6d->(h1_c1@me)|butane/gaussian->(h1_c1@me)|butane
pair_coeff     3     4       6157.8178       3.4682081       129.19572      0.78772886      0.73005908    # buck6d->(h1_c1@me)|butane/gaussian->(h1_c1@me)|butane <--> buck6d->(c3_c2h1@ph)|benzene/gaussian->(c3_c3@ph)|Zn4O_benz
pair_coeff     3     5       6157.8178       3.4682081       129.19572      0.78772886      0.73006542    # buck6d->(h1_c1@me)|butane/gaussian->(h1_c1@me)|butane <--> buck6d->(c3_c2h1@ph)|benzene/gaussian->(c3_c2h1@ph)|benzene
pair_coeff     3     6       6157.8178       3.4682081       129.19572      0.78772886      0.73006542    # buck6d->(h1_c1@me)|butane/gaussian->(h1_c1@me)|butane <--> buck6d->(c3_c2o1@ph)|ph-O-butyl/gaussian->(c3_c2o1@ph)|ph-O-butyl
pair_coeff     3     7       6157.8178       3.4883721        124.7792      0.72632262      0.73005908    # buck6d->(h1_c1@me)|butane/gaussian->(h1_c1@me)|butane <--> buck6d->(c3_c1o2@co2)|Zn4O_benz/gaussian->(c3_c1o2@co2)|Zn4O_benz
pair_coeff     3     8       4275.7736       3.3898305       102.89611       1.0848184      0.73006542    # buck6d->(h1_c1@me)|butane/gaussian->(h1_c1@me)|butane <--> buck6d->(c4_c2h2@me)|butane/gaussian->(c4_c2h2@me)|butane
pair_coeff     3     9       4275.7736       3.3898305       102.89611       1.0848184      0.73006542    # buck6d->(h1_c1@me)|butane/gaussian->(h1_c1@me)|butane <--> buck6d->(c4_c1h2o1@me)|ph-O-butyl/gaussian->(c4_c1h2o1@me)|ph-O-butyl
pair_coeff     3    10       4275.7736       3.3898305       102.89611       1.0848184      0.73006542    # buck6d->(h1_c1@me)|butane/gaussian->(h1_c1@me)|butane <--> buck6d->(c4_c1h3@me)|butane/gaussian->(c4_c1h3@me)|butane
pair_coeff     3    11       6320.6076       3.6144578       103.50278      0.44181916      0.75107727    # buck6d->(h1_c1@me)|butane/gaussian->(h1_c1@me)|butane <--> buck6d->(o4_zn4@zn4o)|Zn4O_benz/gaussian->(o4_zn4@zn4o)|Zn4O_benz
pair_coeff     3    12       6320.6076       3.6144578       103.50278      0.44181916      0.75109952    # buck6d->(h1_c1@me)|butane/gaussian->(h1_c1@me)|butane <--> buck6d->(o2_c2@eth)|ph-O-butyl/gaussian->(o2_c2@eth)|ph-O-butyl
pair_coeff     3    13       6320.6076       3.6144578       103.50278      0.44181916      0.75107727    # buck6d->(h1_c1@me)|butane/gaussian->(h1_c1@me)|butane <--> buck6d->(o2_c1zn1@co2)|Zn4O_benz/gaussian->(o2_c1zn1@co2)|Zn4O_benz
pair_coeff     4     4           10304       3.0612245       457.17971       4.5218516      0.60800239    # buck6d->(c3_c2h1@ph)|benzene/gaussian->(c3_c3@ph)|Zn4O_benz <--> buck6d->(c3_c2h1@ph)|benzene/gaussian->(c3_c3@ph)|Zn4O_benz
pair_coeff     4     5           10304       3.0612245       457.17971       4.5218516      0.60800605    # buck6d->(c3_c2h1@ph)|benzene/gaussian->(c3_c3@ph)|Zn4O_benz <--> buck6d->(c3_c2h1@ph)|benzene/gaussian->(c3_c2h1@ph)|benzene
pair_coeff     4     6           10304       3.0612245       457.17971       4.5218516      0.60800605    # buck6d->(c3_c2h1@ph)|benzene/gaussian->(c3_c3@ph)|Zn4O_benz <--> buck6d->(c3_c2o1@ph)|ph-O-butyl/gaussian->(c3_c2o1@ph)|ph-O-butyl
pair_coeff     4     7           10304       3.0769231       443.36171       4.2093581      0.60800239    # buck6d->(c3_c2h1@ph)|benzene/gaussian->(c3_c3@ph)|Zn4O_benz <--> buck6d->(c3_c1o2@co2)|Zn4O_benz/gaussian->(c3_c1o2@co2)|Zn4O_benz
pair_coeff     4     8       7154.7377               3       358.35904               6      0.60800605    # buck6d->(c3_c2h1@ph)|benzene/gaussian->(c3_c3@ph)|Zn4O_benz <--> buck6d->(c4_c2h2@me)|butane/gaussian->(c4_c2h2@me)|butane
pair_coeff     4     9       7154.7377               3       358.35904               6      0.60800605    # buck6d->(c3_c2h1@ph)|benzene/gaussian->(c3_c3@ph)|Zn4O_benz <--> buck6d->(c4_c1h2o1@me)|ph-O-butyl/gaussian->(c4_c1h2o1@me)|ph-O-butyl
pair_coeff     4    10       7154.7377               3       358.35904               6      0.60800605    # buck6d->(c3_c2h1@ph)|benzene/gaussian->(c3_c3@ph)|Zn4O_benz <--> buck6d->(c4_c1h3@me)|butane/gaussian->(c4_c1h3@me)|butane
pair_coeff     4    11       10576.399       3.1746032       377.27092       2.7176691      0.61998309    # buck6d->(c3_c2h1@ph)|benzene/gaussian->(c3_c3@ph)|Zn4O_benz <--> buck6d->(o4_zn4@zn4o)|Zn4O_benz/gaussian->(o4_zn4@zn4o)|Zn4O_benz
pair_coeff     4    12       10576.399       3.1746032       377.27092       2.7176691       0.6199956    # buck6d->(c3_c2h1@ph)|benzene/gaussian->(c3_c3@ph)|Zn4O_benz <--> buck6d->(o2_c2@eth)|ph-O-butyl/gaussian->(o2_c2@eth)|ph-O-butyl
pair_coeff     4    13       10576.399       3.1746032       377.27092       2.7176691      0.61998309    # buck6d->(c3_c2h1@ph)|benzene/gaussian->(c3_c3@ph)|Zn4O_benz <--> buck6d->(o2_c1zn1@co2)|Zn4O_benz/gaussian->(o2_c1zn1@co2)|Zn4O_benz
pair_coeff     5     5           10304       3.0612245       457.17971       4.5218516      0.60800971    # buck6d->(c3_c2h1@ph)|benzene/gaussian->(c3_c2h1@ph)|benzene <--> buck6d->(c3_c2h1@ph)|benzene/gaussian->(c3_c2h1@ph)|benzene
pair_coeff     5     6           10304       3.0612245       457.17971       4.5218516      0.60800971    # buck6d->(c3_c2h1@ph)|benzene/gaussian->(c3_c2h1@ph)|benzene <--> buck6d->(c3_c2o1@ph)|ph-O-butyl/gaussian->(c3_c2o1@ph)|ph-O-butyl
pair_coeff     5     7           10304       3.0769231       443.36171       4.2093581      0.60800605    # buck6d->(c3_c2h1@ph)|benzene/gaussian->(c3_c2h1@ph)|benzene <--> buck6d->(c3_c1o2@co2)|Zn4O_benz/gaussian->(c3_c1o2@co2)|Zn4O_benz
pair_coeff     5     8       7154.7377               3       358.35904               6      0.60800971    # buck6d->(c3_c2h1@ph)|benzene/gaussian->(c3_c2h1@ph)|benzene <--> buck6d->(c4_c2h2@me)|butane/gaussian->(c4_c2h2@me)|butane
pair_coeff     5     9       7154.7377               3       358.35904               6      0.60800971    # buck6d->(c3_c2h1@ph)|benzene/gaussian->(c3_c2h1@ph)|benzene <--> buck6d->(c4_c1h2o1@me)|ph-O-butyl/gaussian->(c4_c1h2o1@me)|ph-O-butyl
pair_coeff     5    10       7154.7377               3       358.35904               6      0.60800971    # buck6d->(c3_c2h1@ph)|benzene/gaussian->(c3_c2h1@ph)|benzene <--> buck6d->(c4_c1h3@me)|butane/gaussian->(c4_c1h3@me)|butane
pair_coeff     5    11       10576.399       3.1746032       377.27092       2.7176691      0.61998697    # buck6d->(c3_c2h1@ph)|benzene/gaussian->(c3_c2h1@ph)|benzene <--> buck6d->(o4_zn4@zn4o)|Zn4O_benz/gaussian->(o4_zn4@zn4o)|Zn4O_benz
pair_coeff     5    12       10576.399       3.1746032       377.27092       2.7176691      0.61999948    # buck6d->(c3_c2h1@ph)|benzene/gaussian->(c3_c2h1@ph)|benzene <--> buck6d->(o2_c2@eth)|ph-O-butyl/gaussian->(o2_c2@eth)|ph-O-butyl
pair_coeff     5    13       10576.399       3.1746032       377.27092       2.7176691      0.61998697    # buck6d->(c3_c2h1@ph)|benzene/gaussian->(c3_c2h1@ph)|benzene <--> buck6d->(o2_c1zn1@co2)|Zn4O_benz/gaussian->(o2_c1zn1@co2)|Zn4O_benz
pair_coeff     6     6           10304       3.0612245       457.17971       4.5218516      0.60800971    # buck6d->(c3_c2o1@ph)|ph-O-butyl/gaussian->(c3_c2o1@ph)|ph-O-butyl <--> buck6d->(c3_c2o1@ph)|ph-O-butyl/gaussian->(c3_c2o1@ph)|ph-O-butyl
pair_coeff     6     7           10304       3.0769231       443.36171       4.2093581      0.60800605    # buck6d->(c3_c2o1@ph)|ph-O-butyl/gaussian->(c3_c2o1@ph)|ph-O-butyl <--> buck6d->(c3_c1o2@co2)|Zn4O_benz/gaussian->(c3_c1o2@co2)|Zn4O_benz
pair_coeff     6     8       7154.7377               3       358.35904               6      0.60800971    # buck6d->(c3_c2o1@ph)|ph-O-butyl/gaussian->(c3_c2o1@ph)|ph-O-butyl <--> buck6d->(c4_c2h2@me)|butane/gaussian->(c4_c2h2@me)|butane
pair_coeff     6     9       7154.7377               3       358.35904               6      0.60800971    # buck6d->(c3_c2o1@ph)|ph-O-butyl/gaussian->(c3_c2o1@ph)|ph-O-butyl <--> buck6d->(c4_c1h2o1@me)|ph-O-butyl/gaussian->(c4_c1h2o1@me)|ph-O-butyl
pair_coeff     6    10       7154.7377               3       358.35904               6      0.60800971    # buck6d->(c3_c2o1@ph)|ph-O-butyl/gaussian->(c3_c2o1@ph)|ph-O-butyl <--> buck6d->(c4_c1h3@me)|butane/gaussian->(c4_c1h3@me)|butane
pair_coeff     6    11       10576.399       3.1746032       377.27092       2.7176691      0.61998697    # buck6d->(c3_c2o1@ph)|ph-O-butyl/gaussian->(c3_c2o1@ph)|ph-O-butyl <--> buck6d->(o4_zn4@zn4o)|Zn4O_benz/gaussian->(o4_zn4@zn4o)|Zn4O_benz
pair_coeff     6    12       10576.399       3.1746032       377.27092       2.7176691      0.61999948    # buck6d->(c3_c2o1@ph)|ph-O-butyl/gaussian->(c3_c2o1@ph)|ph-O-butyl <--> buck6d->(o2_c2@eth)|ph-O-butyl/gaussian->(o2_c2@eth)|ph-O-butyl
pair_coeff     6    13       10576.399       3.1746032       377.27092       2.7176691      0.61998697    # buck6d->(c3_c2o1@ph)|ph-O-butyl/gaussian->(c3_c2o1@ph)|ph-O-butyl <--> buck6d->(o2_c1zn1@co2)|Zn4O_benz/gaussian->(o2_c1zn1@co2)|Zn4O_benz
pair_coeff     7     7           10304       3.0927835       429.89352       3.9170177      0.60800239    # buck6d->(c3_c1o2@co2)|Zn4O_benz/gaussian->(c3_c1o2@co2)|Zn4O_benz <--> buck6d->(c3_c1o2@co2)|Zn4O_benz/gaussian->(c3_c1o2@co2)|Zn4O_benz
pair_coeff     7     8       7154.7377       3.0150754       347.74176       5.5933807      0.60800605    # buck6d->(c3_c1o2@co2)|Zn4O_benz/gaussian->(c3_c1o2@co2)|Zn4O_benz <--> buck6d->(c4_c2h2@me)|butane/gaussian->(c4_c2h2@me)|butane
pair_coeff     7     9       7154.7377       3.0150754       347.74176       5.5933807      0.60800605    # buck6d->(c3_c1o2@co2)|Zn4O_benz/gaussian->(c3_c1o2@co2)|Zn4O_benz <--> buck6d->(c4_c1h2o1@me)|ph-O-butyl/gaussian->(c4_c1h2o1@me)|ph-O-butyl
pair_coeff     7    10       7154.7377       3.0150754       347.74176       5.5933807      0.60800605    # buck6d->(c3_c1o2@co2)|Zn4O_benz/gaussian->(c3_c1o2@co2)|Zn4O_benz <--> buck6d->(c4_c1h3@me)|butane/gaussian->(c4_c1h3@me)|butane
pair_coeff     7    11       10576.399       3.1914894       365.45138       2.5231391      0.61998309    # buck6d->(c3_c1o2@co2)|Zn4O_benz/gaussian->(c3_c1o2@co2)|Zn4O_benz <--> buck6d->(o4_zn4@zn4o)|Zn4O_benz/gaussian->(o4_zn4@zn4o)|Zn4O_benz
pair_coeff     7    12       10576.399       3.1914894       365.45138       2.5231391       0.6199956    # buck6d->(c3_c1o2@co2)|Zn4O_benz/gaussian->(c3_c1o2@co2)|Zn4O_benz <--> buck6d->(o2_c2@eth)|ph-O-butyl/gaussian->(o2_c2@eth)|ph-O-butyl
pair_coeff     7    13       10576.399       3.1914894       365.45138       2.5231391      0.61998309    # buck6d->(c3_c1o2@co2)|Zn4O_benz/gaussian->(c3_c1o2@co2)|Zn4O_benz <--> buck6d->(o2_c1zn1@co2)|Zn4O_benz/gaussian->(o2_c1zn1@co2)|Zn4O_benz
pair_coeff     8     8            4968       2.9411765       280.22525       7.9168726      0.60800971    # buck6d->(c4_c2h2@me)|butane/gaussian->(c4_c2h2@me)|butane <--> buck6d->(c4_c2h2@me)|butane/gaussian->(c4_c2h2@me)|butane
pair_coeff     8     9            4968       2.9411765       280.22525       7.9168726      0.60800971    # buck6d->(c4_c2h2@me)|butane/gaussian->(c4_c2h2@me)|butane <--> buck6d->(c4_c1h2o1@me)|ph-O-butyl/gaussian->(c4_c1h2o1@me)|ph-O-butyl
pair_coeff     8    10            4968       2.9411765       280.22525       7.9168726      0.60800971    # buck6d->(c4_c2h2@me)|butane/gaussian->(c4_c2h2@me)|butane <--> buck6d->(c4_c1h3@me)|butane/gaussian->(c4_c1h3@me)|butane
pair_coeff     8    11       7343.8824       3.1088083       297.03952       3.6436247      0.61998697    # buck6d->(c4_c2h2@me)|butane/gaussian->(c4_c2h2@me)|butane <--> buck6d->(o4_zn4@zn4o)|Zn4O_benz/gaussian->(o4_zn4@zn4o)|Zn4O_benz
pair_coeff     8    12       7343.8824       3.1088083       297.03952       3.6436247      0.61999948    # buck6d->(c4_c2h2@me)|butane/gaussian->(c4_c2h2@me)|butane <--> buck6d->(o2_c2@eth)|ph-O-butyl/gaussian->(o2_c2@eth)|ph-O-butyl
pair_coeff     8    13       7343.8824       3.1088083       297.03952       3.6436247      0.61998697    # buck6d->(c4_c2h2@me)|butane/gaussian->(c4_c2h2@me)|butane <--> buck6d->(o2_c1zn1@co2)|Zn4O_benz/gaussian->(o2_c1zn1@co2)|Zn4O_benz
pair_coeff     9     9            4968       2.9411765       280.22525       7.9168726      0.60800971    # buck6d->(c4_c1h2o1@me)|ph-O-butyl/gaussian->(c4_c1h2o1@me)|ph-O-butyl <--> buck6d->(c4_c1h2o1@me)|ph-O-butyl/gaussian->(c4_c1h2o1@me)|ph-O-butyl
pair_coeff     9    10            4968       2.9411765       280.22525       7.9168726      0.60800971    # buck6d->(c4_c1h2o1@me)|ph-O-butyl/gaussian->(c4_c1h2o1@me)|ph-O-butyl <--> buck6d->(c4_c1h3@me)|butane/gaussian->(c4_c1h3@me)|butane
pair_coeff     9    11       7343.8824       3.1088083       297.03952       3.6436247      0.61998697    # buck6d->(c4_c1h2o1@me)|ph-O-butyl/gaussian->(c4_c1h2o1@me)|ph-O-butyl <--> buck6d->(o4_zn4@zn4o)|Zn4O_benz/gaussian->(o4_zn4@zn4o)|Zn4O_benz
pair_coeff     9    12       7343.8824       3.1088083       297.03952       3.6436247      0.61999948    # buck6d->(c4_c1h2o1@me)|ph-O-butyl/gaussian->(c4_c1h2o1@me)|ph-O-butyl <--> buck6d->(o2_c2@eth)|ph-O-butyl/gaussian->(o2_c2@eth)|ph-O-butyl
pair_coeff     9    13       7343.8824       3.1088083       297.03952       3.6436247      0.61998697    # buck6d->(c4_c1h2o1@me)|ph-O-butyl/gaussian->(c4_c1h2o1@me)|ph-O-butyl <--> buck6d->(o2_c1zn1@co2)|Zn4O_benz/gaussian->(o2_c1zn1@co2)|Zn4O_benz
pair_coeff    10    10            4968       2.9411765       280.22525       7.9168726      0.60800971    # buck6d->(c4_c1h3@me)|butane/gaussian->(c4_c1h3@me)|butane <--> buck6d->(c4_c1h3@me)|butane/gaussian->(c4_c1h3@me)|butane
pair_coeff    10    11       7343.8824       3.1088083       297.03952       3.6436247      0.61998697    # buck6d->(c4_c1h3@me)|butane/gaussian->(c4_c1h3@me)|butane <--> buck6d->(o4_zn4@zn4o)|Zn4O_benz/gaussian->(o4_zn4@zn4o)|Zn4O_benz
pair_coeff    10    12       7343.8824       3.1088083       297.03952       3.6436247      0.61999948    # buck6d->(c4_c1h3@me)|butane/gaussian->(c4_c1h3@me)|butane <--> buck6d->(o2_c2@eth)|ph-O-butyl/gaussian->(o2_c2@eth)|ph-O-butyl
pair_coeff    10    13       7343.8824       3.1088083       297.03952       3.6436247      0.61998697    # buck6d->(c4_c1h3@me)|butane/gaussian->(c4_c1h3@me)|butane <--> buck6d->(o2_c1zn1@co2)|Zn4O_benz/gaussian->(o2_c1zn1@co2)|Zn4O_benz
pair_coeff    11    11           10856       3.2967033        308.7755       1.6022517      0.63270113    # buck6d->(o4_zn4@zn4o)|Zn4O_benz/gaussian->(o4_zn4@zn4o)|Zn4O_benz <--> buck6d->(o4_zn4@zn4o)|Zn4O_benz/gaussian->(o4_zn4@zn4o)|Zn4O_benz
pair_coeff    11    12           10856       3.2967033        308.7755       1.6022517      0.63271443    # buck6d->(o4_zn4@zn4o)|Zn4O_benz/gaussian->(o4_zn4@zn4o)|Zn4O_benz <--> buck6d->(o2_c2@eth)|ph-O-butyl/gaussian->(o2_c2@eth)|ph-O-butyl
pair_coeff    11    13           10856       3.2967033        308.7755       1.6022517      0.63270113    # buck6d->(o4_zn4@zn4o)|Zn4O_benz/gaussian->(o4_zn4@zn4o)|Zn4O_benz <--> buck6d->(o2_c1zn1@co2)|Zn4O_benz/gaussian->(o2_c1zn1@co2)|Zn4O_benz
pair_coeff    12    12           10856       3.2967033        308.7755       1.6022517      0.63272774    # buck6d->(o2_c2@eth)|ph-O-butyl/gaussian->(o2_c2@eth)|ph-O-butyl <--> buck6d->(o2_c2@eth)|ph-O-butyl/gaussian->(o2_c2@eth)|ph-O-butyl
pair_coeff    12    13           10856       3.2967033        308.7755       1.6022517      0.63271443    # buck6d->(o2_c2@eth)|ph-O-butyl/gaussian->(o2_c2@eth)|ph-O-butyl <--> buck6d->(o2_c1zn1@co2)|Zn4O_benz/gaussian->(o2_c1zn1@co2)|Zn4O_benz
pair_coeff    13    13           10856       3.2967033        308.7755       1.6022517      0.63270113    # buck6d->(o2_c1zn1@co2)|Zn4O_benz/gaussian->(o2_c1zn1@co2)|Zn4O_benz <--> buck6d->(o2_c1zn1@co2)|Zn4O_benz/gaussian->(o2_c1zn1@co2)|Zn4O_benz

bond_style hybrid class2 morse harmonic

bond_coeff    13 class2     1.529408   314.283599  -801.423177  1192.116976    # mm3->(c4_c2h2@me,c4_c2h2@me)|butane
bond_coeff     8 class2     1.394074   455.360160 -1161.168407  1727.238006    # mm3->(c3_c2h1@ph,c3_c2o1@ph)|ph-O-butyl
bond_coeff     4 class2     1.101213   365.915223  -933.083819  1387.962181    # mm3->(c4_c2h2@me,h1_c1@me)|butane
bond_coeff     9 class2     1.488000   355.167780  -905.677839  1347.195786    # mm3->(c3_c1o2@co2,c3_c3@ph)|Zn4O_benz
bond_coeff     3 class2     1.094000   390.634200  -996.117210  1481.724350    # mm3->(c3_c2h1@ph,h1_c1@ph)|benzene
bond_coeff     6 class2     1.099390   374.841138  -955.844901  1421.819290    # mm3->(c4_c1h3@me,h1_c1@me)|butane
bond_coeff    10 class2     1.357631   390.806068  -996.555472  1482.376265    # mm3->(c3_c2o1@ph,o2_c2@eth)|ph-O-butyl
bond_coeff     1 morse    50.000000    1.463685     1.987000    # morse->(o4_zn4@zn4o,zn4_o4@zn4o)|Zn4O_benz
bond_coeff    12 class2     1.515294   290.719566  -741.334894  1102.735655    # mm3->(c4_c1h2o1@me,c4_c2h2@me)|ph-O-butyl
bond_coeff     5 class2     1.101119   356.182160  -908.264508  1351.043455    # mm3->(c4_c1h2o1@me,h1_c1@me)|ph-O-butyl
bond_coeff     7 class2     1.394000   509.335200 -1298.804760  1931.972080    # mm3->(c3_c2h1@ph,c3_c2h1@ph)|benzene
bond_coeff    14 class2     1.427071   299.914044  -764.780811  1137.611457    # mm3->(c4_c1h2o1@me,o2_c2@eth)|ph-O-butyl
bond_coeff    15 class2     1.529182   318.631885  -812.511306  1208.610568    # mm3->(c4_c1h3@me,c4_c2h2@me)|butane
bond_coeff     2 morse    50.000000    1.547773     1.917000    # morse->(o2_c1zn1@co2,zn4_o4@zn4o)|Zn4O_benz
bond_coeff    11 class2     1.275000   620.986080 -1583.514504  2355.477825    # mm3->(c3_c1o2@co2,o2_c1zn1@co2)|Zn4O_benz

angle_style hybrid class2/p6 cosine/buck6d

angle_coeff    25 class2/p6      113.257375    69.461048   -55.717548    12.769521    -9.145496    16.468519    # mm3->(c3_c2o1@ph,o2_c2@eth,c4_c1h2o1@me)|ph-O-butyl
angle_coeff    25 class2/p6 bb 0.0 1.0 1.0
angle_coeff    25 class2/p6 ba 0.0 0.0 1.0 1.0
angle_coeff    26 class2/p6      135.606000     6.762360    -5.424366     1.243173    -0.890357     1.603288    # mm3->(c3_c1o2@co2,o2_c1zn1@co2,zn4_o4@zn4o)|Zn4O_benz
angle_coeff    26 class2/p6 bb 0.0 1.0 1.0
angle_coeff    26 class2/p6 ba 0.0 0.0 1.0 1.0
angle_coeff    18 class2/p6      116.818943    25.946625   -20.812849     4.769954    -3.416228     6.151685    # mm3->(h1_c1@me,c4_c1h2o1@me,o2_c2@eth)|ph-O-butyl
angle_coeff    18 class2/p6 bb 0.0 1.0 1.0
angle_coeff    18 class2/p6 ba 0.0 0.0 1.0 1.0
angle_coeff     4 class2/p6      117.296000    57.983640   -46.511050    10.659547    -7.634339    13.747340    # mm3->(c3_c1o2@co2,c3_c3@ph,c3_c2h1@ph)|Zn4O_benz
angle_coeff     4 class2/p6 bb 0.0 1.0 1.0
angle_coeff     4 class2/p6 ba 0.0 0.0 1.0 1.0
angle_coeff     6 class2/p6      120.350000    36.185820   -29.026127     6.652298    -4.764358     8.579296    # mm3->(c3_c2h1@ph,c3_c2h1@ph,h1_c1@ph)|benzene
angle_coeff     6 class2/p6 bb    93.378120     1.394000     1.094000
angle_coeff     6 class2/p6 ba   -25.179000    53.523360     1.394000     1.094000
angle_coeff     1 class2/p6      113.584000     0.000000    -0.000000     0.000000    -0.000000     0.000000    # mm3->(o2_c1zn1@co2,zn4_o4@zn4o,o4_zn4@zn4o)|Zn4O_benz
angle_coeff     1 class2/p6 bb     0.000000     1.917000     1.987000
angle_coeff     1 class2/p6 ba     0.000000     0.000000     1.917000     1.987000
angle_coeff    17 class2/p6      118.378973    29.889438   -23.975541     5.494789    -3.935353     7.086487    # mm3->(c4_c2h2@me,c4_c1h2o1@me,h1_c1@me)|ph-O-butyl
angle_coeff    17 class2/p6 bb 0.0 1.0 1.0
angle_coeff    17 class2/p6 ba 0.0 0.0 1.0 1.0
angle_coeff    23 class2/p6      113.161464    65.779678   -52.764571    12.092749    -8.660793    15.595703    # mm3->(c4_c1h3@me,c4_c2h2@me,c4_c2h2@me)|butane
angle_coeff    23 class2/p6 bb 0.0 1.0 1.0
angle_coeff    23 class2/p6 ba 0.0 0.0 1.0 1.0
angle_coeff    11 class2/p6      123.006000   111.866700   -89.732857    20.565256   -14.728780    26.522474    # mm3->(o2_c1zn1@co2,c3_c1o2@co2,o2_c1zn1@co2)|Zn4O_benz
angle_coeff    11 class2/p6 bb 0.0 1.0 1.0
angle_coeff    11 class2/p6 ba 0.0 0.0 1.0 1.0
angle_coeff    22 class2/p6      110.602540    44.106999   -35.380028     8.108505    -5.807289    10.457328    # mm3->(c4_c1h3@me,c4_c2h2@me,h1_c1@me)|butane
angle_coeff    22 class2/p6 bb 0.0 1.0 1.0
angle_coeff    22 class2/p6 ba 0.0 0.0 1.0 1.0
angle_coeff    13 class2/p6      110.342401    30.766657   -24.679194     5.656055    -4.050851     7.294466    # mm3->(c4_c1h2o1@me,c4_c2h2@me,h1_c1@me)|ph-O-butyl
angle_coeff    13 class2/p6 bb 0.0 1.0 1.0
angle_coeff    13 class2/p6 ba 0.0 0.0 1.0 1.0
angle_coeff     7 class2/p6      117.983314    23.459678   -18.817967     4.312760    -3.088787     5.562055    # mm3->(c3_c2o1@ph,c3_c2h1@ph,h1_c1@ph)|ph-O-butyl
angle_coeff     7 class2/p6 bb 0.0 1.0 1.0
angle_coeff     7 class2/p6 ba 0.0 0.0 1.0 1.0
angle_coeff    16 class2/p6      114.761173    31.409569   -25.194901     5.774246    -4.135499     7.446894    # mm3->(h1_c1@me,c4_c1h2o1@me,h1_c1@me)|ph-O-butyl
angle_coeff    16 class2/p6 bb 0.0 1.0 1.0
angle_coeff    16 class2/p6 ba 0.0 0.0 1.0 1.0
angle_coeff    24 class2/p6      103.992000    50.214120   -40.278800     9.231221    -6.611375    11.905265    # mm3->(zn4_o4@zn4o,o4_zn4@zn4o,zn4_o4@zn4o)|Zn4O_benz
angle_coeff    24 class2/p6 bb     7.625640     1.987000     1.987000
angle_coeff    24 class2/p6 ba    18.416640    18.416640     1.987000     1.987000
angle_coeff    10 class2/p6      116.368000    77.191620   -61.918557    14.190688   -10.163332    18.301360    # mm3->(c3_c3@ph,c3_c1o2@co2,o2_c1zn1@co2)|Zn4O_benz
angle_coeff    10 class2/p6 bb 0.0 1.0 1.0
angle_coeff    10 class2/p6 ba 0.0 0.0 1.0 1.0
angle_coeff    14 class2/p6      110.134130    42.675831   -34.232030     7.845403    -5.618856    10.118012    # mm3->(c4_c2h2@me,c4_c2h2@me,h1_c1@me)|butane
angle_coeff    14 class2/p6 bb 0.0 1.0 1.0
angle_coeff    14 class2/p6 ba 0.0 0.0 1.0 1.0
angle_coeff     2 class2/p6      123.103000     5.755200    -4.616481     1.058020    -0.757751     1.364500    # mm3->(o2_c1zn1@co2,zn4_o4@zn4o,o2_c1zn1@co2)|Zn4O_benz
angle_coeff     2 class2/p6 bb 0.0 1.0 1.0
angle_coeff     2 class2/p6 ba 0.0 0.0 1.0 1.0
angle_coeff     9 class2/p6      144.582528    30.574828   -24.525320     5.620789    -4.025594     7.248986    # mm3->(c3_c2h1@ph,c3_c2o1@ph,c3_c2h1@ph)|ph-O-butyl
angle_coeff     9 class2/p6 bb 0.0 1.0 1.0
angle_coeff     9 class2/p6 ba 0.0 0.0 1.0 1.0
angle_coeff    20 class2/p6      107.691286    37.470927   -30.056964     6.888549    -4.933560     8.883982    # mm3->(h1_c1@me,c4_c1h3@me,h1_c1@me)|butane
angle_coeff    20 class2/p6 bb 0.0 1.0 1.0
angle_coeff    20 class2/p6 ba 0.0 0.0 1.0 1.0
angle_coeff    12 class2/p6      107.271015    38.858990   -31.170386     7.143726    -5.116317     9.213077    # mm3->(h1_c1@me,c4_c2h2@me,h1_c1@me)|butane
angle_coeff    12 class2/p6 bb 0.0 1.0 1.0
angle_coeff    12 class2/p6 ba 0.0 0.0 1.0 1.0
angle_coeff     5 class2/p6      117.296000    57.983640   -46.511050    10.659547    -7.634339    13.747340    # mm3->(c3_c1o2@co2,c3_c3@ph,c3_c2o1@ph)|Zn4O_benz
angle_coeff     5 class2/p6 bb 0.0 1.0 1.0
angle_coeff     5 class2/p6 ba 0.0 0.0 1.0 1.0
angle_coeff    21 class2/p6      110.959949    44.958991   -36.063446     8.265133    -5.919465    10.659326    # mm3->(c4_c2h2@me,c4_c1h3@me,h1_c1@me)|butane
angle_coeff    21 class2/p6 bb 0.0 1.0 1.0
angle_coeff    21 class2/p6 ba 0.0 0.0 1.0 1.0
angle_coeff     8 class2/p6      159.969859     8.440703    -6.770633     1.551715    -1.111334     2.001206    # mm3->(c3_c2h1@ph,c3_c2o1@ph,o2_c2@eth)|ph-O-butyl
angle_coeff     8 class2/p6 bb 0.0 1.0 1.0
angle_coeff     8 class2/p6 ba 0.0 0.0 1.0 1.0
angle_coeff     3 class2/p6      126.007089    47.182599   -37.847093     8.673915    -6.212234    11.186522    # mm3->(c3_c2h1@ph,c3_c2h1@ph,c3_c2o1@ph)|ph-O-butyl
angle_coeff     3 class2/p6 bb 0.0 1.0 1.0
angle_coeff     3 class2/p6 ba 0.0 0.0 1.0 1.0
angle_coeff    15 class2/p6      113.161464    65.779678   -52.764571    12.092749    -8.660793    15.595703    # mm3->(c4_c1h2o1@me,c4_c2h2@me,c4_c2h2@me)|butane
angle_coeff    15 class2/p6 bb 0.0 1.0 1.0
angle_coeff    15 class2/p6 ba 0.0 0.0 1.0 1.0
angle_coeff    19 class2/p6      114.447479    32.354254   -25.952671     5.947914    -4.259880     7.670870    # mm3->(c4_c2h2@me,c4_c1h2o1@me,o2_c2@eth)|ph-O-butyl
angle_coeff    19 class2/p6 bb 0.0 1.0 1.0
angle_coeff    19 class2/p6 ba 0.0 0.0 1.0 1.0

dihedral_style opls

dihedral_coeff     5     0.000000     5.972000     0.000000     0.000000    # cos3->(c3_c2o1@ph,c3_c2h1@ph,c3_c2h1@ph,c3_c2o1@ph)|ph-O-butyl
dihedral_coeff    18     0.000000     3.012000     0.000000     0.000000    # cos3->(c3_c3@ph,c3_c1o2@co2,o2_c1zn1@co2,zn4_o4@zn4o)|Zn4O_benz
dihedral_coeff    19     0.000000     0.076000     0.000000     0.000000    # cos3->(o2_c1zn1@co2,c3_c1o2@co2,o2_c1zn1@co2,zn4_o4@zn4o)|Zn4O_benz
dihedral_coeff     9     0.000000     5.972000     0.000000     0.000000    # cos3->(c3_c2h1@ph,c3_c2o1@ph,c3_c2h1@ph,c3_c2h1@ph)|ph-O-butyl
dihedral_coeff     7     0.000000     0.000000     0.000000     0.000000    # cos3->(c3_c2o1@ph,c3_c2h1@ph,c3_c3@ph,c3_c1o2@co2)|Zn4O_benz
dihedral_coeff    28     0.000000     0.000000     0.010079     0.000000    # cos3->(h1_c1@me,c4_c1h2o1@me,o2_c2@eth,c3_c2o1@ph)|ph-O-butyl
dihedral_coeff    14     0.000000     5.117273     0.000000     0.000000    # cos3->(h1_c1@ph,c3_c2h1@ph,c3_c2o1@ph,c3_c2h1@ph)|ph-O-butyl
dihedral_coeff    21     0.000000     0.000000     0.514450     0.000000    # cos3->(o2_c2@eth,c4_c1h2o1@me,c4_c2h2@me,h1_c1@me)|ph-O-butyl
dihedral_coeff    10     0.000000     5.000000     0.000000     0.000000    # cos3->(c3_c1o2@co2,c3_c2h1@ph,c3_c2o1@ph,o2_c2@eth)|co2-ph-o-me
dihedral_coeff     8     0.000000     6.281542     0.000000     0.000000    # cos3->(c3_c2h1@ph,c3_c2h1@ph,c3_c2o1@ph,o2_c2@eth)|ph-O-prop
dihedral_coeff    11     0.000000     0.000000     0.000000     0.000000    # cos3->(c3_c2h1@ph,c3_c2o1@ph,c3_c3@ph,c3_c1o2@co2)|Zn4O_benz
dihedral_coeff    27    -0.370853    -0.236138     1.970124     0.000000    # cos3->(c4_c1h2o1@me,c4_c2h2@me,c4_c2h2@me,c4_c1h3@me)|butane
dihedral_coeff    31     0.000000     0.000000     0.870477     0.000000    # cos3->(h1_c1@me,c4_c1h3@me,c4_c2h2@me,c4_c2h2@me)|butane
dihedral_coeff    30     0.000000     0.000000     0.343076     0.000000    # cos3->(h1_c1@me,c4_c1h3@me,c4_c2h2@me,h1_c1@me)|butane
dihedral_coeff    16     0.000000     3.664689     0.000000     0.000000    # cos3->(c3_c2h1@ph,c3_c2h1@ph,c3_c2o1@ph,c3_c2h1@ph)|ph-O-butyl
dihedral_coeff    13     0.000000     1.902000     0.000000     0.000000    # cos3->(o2_c1zn1@co2,c3_c1o2@co2,c3_c3@ph,c3_c2o1@ph)|Zn4O_benz
dihedral_coeff    24     0.000000     0.000000     0.302052     0.000000    # cos3->(h1_c1@me,c4_c2h2@me,c4_c2h2@me,h1_c1@me)|butane
dihedral_coeff    29     0.803729    -0.768357     1.298183     0.000000    # cos3->(c4_c2h2@me,c4_c1h2o1@me,o2_c2@eth,c3_c2o1@ph)|ph-O-butyl
dihedral_coeff    23    -1.702642    -0.327922     0.811155     0.000000    # cos3->(o2_c2@eth,c4_c1h2o1@me,c4_c2h2@me,c4_c2h2@me)|ph-O-butyl
dihedral_coeff    25     0.000000     0.000000    -0.052641     0.000000    # cos3->(c4_c1h3@me,c4_c2h2@me,c4_c2h2@me,h1_c1@me)|butane
dihedral_coeff     4     0.000000     6.045595     0.000000     0.000000    # cos3->(c3_c2o1@ph,c3_c2h1@ph,c3_c2h1@ph,h1_c1@ph)|ph-O-butyl
dihedral_coeff     6     0.000000     0.000000     0.000000     0.000000    # cos3->(h1_c1@ph,c3_c2h1@ph,c3_c3@ph,c3_c1o2@co2)|Zn4O_benz
dihedral_coeff    15     0.000000     3.982172     0.000000     0.000000    # cos3->(h1_c1@ph,c3_c2h1@ph,c3_c2o1@ph,o2_c2@eth)|ph-O-butyl
dihedral_coeff     1     0.000000     0.000000     0.000000     0.000000    # cos3->(zn4_o4@zn4o,o4_zn4@zn4o,zn4_o4@zn4o,o2_c1zn1@co2)|Zn4O_benz
dihedral_coeff     3     0.000000     0.000000     0.000000     0.000000    # cos3->(c3_c1o2@co2,o2_c1zn1@co2,zn4_o4@zn4o,o2_c1zn1@co2)|Zn4O_benz
dihedral_coeff    26     0.000000     0.000000    -0.052641     0.000000    # cos3->(c4_c1h2o1@me,c4_c2h2@me,c4_c2h2@me,h1_c1@me)|butane
dihedral_coeff     2     0.000000     0.000000     0.000000     0.000000    # cos3->(c3_c1o2@co2,o2_c1zn1@co2,zn4_o4@zn4o,o4_zn4@zn4o)|Zn4O_benz
dihedral_coeff    17     4.763804     2.750105     0.191432     0.000000    # cos3->(c3_c2h1@ph,c3_c2o1@ph,o2_c2@eth,c4_c1h2o1@me)|ph-O-butyl
dihedral_coeff    20     0.000000     0.000000     0.037991     0.000000    # cos3->(h1_c1@me,c4_c1h2o1@me,c4_c2h2@me,h1_c1@me)|ph-O-butyl
dihedral_coeff    12     0.000000     1.902000     0.000000     0.000000    # cos3->(o2_c1zn1@co2,c3_c1o2@co2,c3_c3@ph,c3_c2h1@ph)|Zn4O_benz
dihedral_coeff    22     0.000000     0.000000     0.343642     0.000000    # cos3->(h1_c1@me,c4_c1h2o1@me,c4_c2h2@me,c4_c2h2@me)|ph-O-butyl

improper_style inversion/harmonic

improper_coeff     2     3.563253     0.000000    # harm->(c3_c2h1@ph,c3_c2h1@ph,c3_c2o1@ph,h1_c1@ph)|ph-O-butyl
improper_coeff     4    40.574160     0.000000    # harm->(c3_c1o2@co2,c3_c3@ph,o2_c1zn1@co2,o2_c1zn1@co2)|Zn4O_benz
improper_coeff     3     0.000000     0.000000    # harm->(c3_c2o1@ph,c3_c2h1@ph,c3_c2h1@ph,o2_c2@eth)|ph-O-butyl
improper_coeff     1     0.000000     0.000000    # harm->(c3_c2h1@ph,c3_c1o2@co2,c3_c2h1@ph,c3_c2o1@ph)|xxx

special_bonds lj 0.00 0.00 1.00 coul 1.00 1.00 1.00
Finding 1-2 1-3 1-4 neighbors ...
  special bond factors lj:    0        0        1       
  special bond factors coul:  1        1        1       
     4 = max # of 1-2 neighbors
    12 = max # of 1-3 neighbors
    22 = max # of special neighbors
  special bonds CPU = 0.001 seconds




change_box all  triclinic
Changing box ...
  triclinic box = (0.0000000 0.0000000 0.0000000) to (51.703312 51.703314 51.703314) with tilt (0.0000000 0.0000000 0.0000000)
kspace_style pppm      1e-06
# ------------------------ MOF-FF FORCE FIELD END --------------------------


min_style		cg
minimize		0.0 1.0e-8 1000 10000
WARNING: Using 'neigh_modify every 1 delay 0 check yes' setting during minimization (../min.cpp:188)
PPPM initialization ...
  using 12-bit tables for long-range coulomb (../kspace.cpp:340)
  G vector (1/distance) = 0.26888087
  grid = 48 48 48
  stencil order = 5
  estimated absolute RMS force accuracy = 0.00031856066
  estimated relative force accuracy = 9.5933598e-07
  using double precision FFTW3
  3d grid and FFT values/proc = 8246 2016
Neighbor list info ...
  update every 1 steps, delay 0 steps, check yes
  max neighbors/atom: 2000, page size: 100000
  master list distance cutoff = 14
  ghost atom cutoff = 14
  binsize = 7, bins = 8 8 8
  1 neighbor lists, perpetual/occasional/extra = 1 0 0
  (1) pair buck6d/coul/gauss/long, perpetual
      attributes: half, newton on
      pair build: half/bin/newton/tri
      stencil: half/bin/3d/tri
      bin: standard
WARNING: Inconsistent image flags (../domain.cpp:814)
Per MPI rank memory allocation (min/avg/max) = 23.58 | 23.65 | 23.85 Mbytes
Step Temp E_pair E_mol TotEng Press 
       0            0   -119433.73    32118.633   -87315.097   -24973.003 
    1000            0   -119788.01    14753.381   -105034.63   0.55676402 
Loop time of 25.7555 on 56 procs for 1000 steps with 8384 atoms

97.9% CPU use with 56 MPI tasks x no OpenMP threads

Minimization stats:
  Stopping criterion = max iterations
  Energy initial, next-to-last, final = 
     -87315.0966070014  -105034.582240311  -105034.629686677
  Force two-norm initial, final = 6925.3771 8.9696311
  Force max component initial, final = 248.01747 0.35278347
  Final line search alpha, max atom move = 0.021600934 0.0076204526
  Iterations, force evaluations = 1000 1997

MPI task timing breakdown:
Section |  min time  |  avg time  |  max time  |%varavg| %total
---------------------------------------------------------------
Pair    | 16.131     | 19.152     | 21.696     |  33.0 | 74.36
Bond    | 0.58783    | 0.81614    | 1.0143     |  16.2 |  3.17
Kspace  | 2.6428     | 5.3923     | 8.6571     |  68.2 | 20.94
Neigh   | 0.028407   | 0.029029   | 0.029599   |   0.2 |  0.11
Comm    | 0.274      | 0.30772    | 0.34358    |   3.9 |  1.19
Output  | 4.1008e-05 | 4.2064e-05 | 7.0095e-05 |   0.0 |  0.00
Modify  | 0          | 0          | 0          |   0.0 |  0.00
Other   |            | 0.05876    |            |       |  0.23

Nlocal:        149.714 ave         167 max         134 min
Histogram: 12 0 4 12 0 4 0 20 0 4
Nghost:        4891.07 ave        5011 max        4679 min
Histogram: 4 4 0 0 4 8 16 0 4 16
Neighs:        51231.3 ave       58133 max       45171 min
Histogram: 4 8 4 12 0 0 16 8 0 4

Total # of neighbors = 2868952
Ave neighs/atom = 342.19370
Ave special neighs/atom = 6.1984733
Neighbor list builds = 8
Dangerous builds = 0

velocity     	all create 350 3204550 dist gaussian mom yes rot no

#-----------------------------------------------------------------------------
variable        N      equal step
variable        T      equal temp
variable		R		equal 0.00198722
variable		sysvol		equal vol
variable		sysmass		equal mass(all)/6.0221367e+23
variable		sysdensity	equal v_sysmass/v_sysvol/1.0e-24
variable		coulomb		equal ecoul+elong
variable		etotal		equal etotal
variable		pe		equal pe
variable		ke		equal ke
variable		evdwl		equal evdwl
variable		epair		equal epair
variable		ebond		equal ebond
variable		eangle		equal eangle
variable		edihed		equal edihed
variable		eimp		equal eimp
variable		lx		equal lx
variable		ly		equal ly
variable		lz		equal lz
variable		Nthermo		equal 0
variable		cella		equal lx
variable		cellb		equal sqrt(ly*ly+xy*xy)
variable		cellc		equal sqrt(lz*lz+xz*xz+yz*yz)
variable		cellalpha	equal acos((xy*xz+ly*yz)/(v_cellb*v_cellc))
variable		cellbeta	equal acos(xz/v_cellc)
variable		cellgamma	equal acos(xy/v_cellb)
variable		p		equal press
variable		pxx		equal pxx
variable		pyy		equal pyy
variable		pzz		equal pzz
variable		pyz		equal pyz
variable		pxz		equal pxz
variable		pxy		equal pxy
variable		sxx		equal -pxx
variable		syy		equal -pyy
variable		szz		equal -pzz
variable		syz		equal -pyz
variable		sxz		equal -pxz
variable		sxy		equal -pxy
variable		enthalpy    equal enthalpy
variable		fmax		equal fmax
variable	        fnorm		equal fnorm
variable		time equal step*dt+0.000001
variable		surfacetension equal 0.5*v_lz*(0.5*(v_sxx+v_syy)-v_szz)


#-------------------------------------------------------------------------------
timestep	    1
thermo_style custom step evdwl ebond eangle edihed eimp pe ke etotal temp press vol v_coulomb enthalpy spcpu
thermo 1000

variable        TEMP        equal 350

fix             1 all npt temp  ${TEMP} ${TEMP} 100  tri  0 0 1000
fix             1 all npt temp  350 ${TEMP} 100  tri  0 0 1000
fix             1 all npt temp  350 350 100  tri  0 0 1000
run		100000
PPPM initialization ...
  using 12-bit tables for long-range coulomb (../kspace.cpp:340)
  G vector (1/distance) = 0.26888087
  grid = 48 48 48
  stencil order = 5
  estimated absolute RMS force accuracy = 0.00031856066
  estimated relative force accuracy = 9.5933598e-07
  using double precision FFTW3
  3d grid and FFT values/proc = 8246 2016
WARNING: Inconsistent image flags (../domain.cpp:814)
Per MPI rank memory allocation (min/avg/max) = 22.47 | 22.54 | 22.74 Mbytes
Step E_vdwl E_bond E_angle E_dihed E_impro PotEng KinEng TotEng Temp Press Volume v_coulomb Enthalpy S/CPU 
    1000   -529.78398    315.09446    11490.531    2943.5238    4.2316512   -105034.63    8745.8457   -96288.784          350    2893.0979    138214.98   -119258.23   -90457.098            0 
    2000   -120.05286    3891.0831    15184.855    4405.2686    161.30371   -95597.037    9027.5899   -86569.447    361.27512     452.1669    136656.24   -119119.49   -85668.282    71.536131 
    3000   -81.057428    3671.6067    15114.984    4301.3763    160.86823   -95975.129    8553.8102   -87421.319    342.31493    1121.3359    137221.06   -119142.91    -85177.27     69.00546 
    4000   -72.440677    3735.8495    15103.295    4334.2279     160.4591   -95891.501    8815.1414   -87076.359    352.77314   -357.00707    136716.85   -119152.89   -87788.187    66.890348 
    5000   -51.289294    3679.0405    15048.928    4289.1235    164.78584   -96007.498    8830.6447   -87176.853    353.39357    342.81086    137216.61   -119138.09   -86490.832    67.206573 
    6000   -20.532843    3669.4247    15075.186    4201.0454    166.04038   -96060.884    8763.9167   -87296.968    350.72318   -421.18009    137323.22   -119152.05   -88140.473    66.253518 
    7000    10.600247    3683.6019    15086.791    4202.4817    162.56931   -96022.255    8758.4441    -87263.81    350.50417    220.22723    137401.13    -119168.3   -86822.507    66.294569 
    8000   -41.518636    3703.4382    15124.582    4123.6681    161.15304   -96087.208    8735.5602   -87351.648    349.58838    113.77165    137595.34   -119158.53   -87123.344    67.484775 
    9000   -54.719217    3779.7578    15163.562     4246.244    172.14644   -95853.341    8651.7054   -87201.635     346.2326   -722.05371    137101.52   -119160.33   -88645.371    66.602232 
   10000   -54.694099    3709.2758    15076.536    4135.8716    154.34408   -96068.606    8779.1782   -87289.427    351.33393     106.2875    137967.42   -119089.94   -87075.565    66.072311 
   11000   -45.108272    3683.1336    15031.326    4152.8697    163.53769   -96156.255    8762.2459   -87394.009    350.65632   -613.81247    138176.69   -119142.01   -88630.943    68.419361 
   12000     69.18565    3774.3027    14973.689    4037.1603    142.20028   -96094.254    8960.3249   -87133.929    358.58324    -218.6789    137819.94   -119090.79   -87573.465    68.334152 
   13000    16.535226    3684.7396    15104.276    3982.9551    152.19314   -96186.773    8813.6691   -87373.103    352.71422    55.393523    137843.82   -119127.47   -87261.745    66.646757 
   14000   -4.7929684    3699.4899    15169.571    3998.1237     149.0441   -96090.623    8728.6791   -87361.943    349.31301   -33.478162    138426.76   -119102.06    -87429.53    67.093457 
   15000   -75.261887    3768.2728    15125.095     4069.651    150.91405   -96065.548    8840.4121   -87225.136    353.78445    93.841264    137656.12   -119104.22   -87036.743    68.540101 
   16000   -38.955746     3738.416    15100.132    3975.8329    167.67088   -96147.149    8790.7092    -87356.44    351.79539   -617.04615    137357.31   -119090.25   -88592.516    68.152045 
   17000  0.038502024    3673.9806    15081.531    3951.7479     156.9128   -96251.684    8663.0254   -87588.659    346.68561    270.60014    138068.07   -119115.89   -87043.783    67.232622 
   18000    28.468363    3794.3106     15082.11    3983.7776    163.21055   -96067.417    8760.0218   -87307.396    350.56731   -328.51639    138092.72   -119119.29   -87969.008    67.711459 
   19000     86.75825     3674.979    15139.127    3934.2498    158.30832   -96112.765    8624.8382   -87487.927     345.1574    590.46273    137716.89   -119106.19   -86302.006    67.739089 
   20000   -3.9986215    3722.2806    15182.071    3955.5419    153.93142   -96113.919    8653.7239   -87460.195    346.31338   -479.09539    137869.11   -119123.75   -88423.502    65.310606 
   21000   -15.695668    3690.6958    15084.256    3925.2285    155.23669   -96219.462    8851.5843   -87367.878    354.23155    242.21295    137723.78   -119059.18   -86881.378    64.849938 
   22000  -0.38015006    3727.6544    15008.547     3927.503    153.85995   -96324.991    8816.1464   -87508.845    352.81336    553.70944    137449.47   -119142.18   -86398.901    64.280972 
   23000    47.125061    3716.0726    15174.585    3825.7472    160.94471   -96157.688    8897.7409   -87259.947    356.07869    761.57282    137880.78   -119082.16   -85728.539    63.322665 
   24000    18.509814    3649.1545    15157.151    3870.3378     169.9148   -96195.499    8682.5113   -87512.987    347.46542    719.89932    137713.24   -119060.57   -86067.137    67.221277 
   25000    -4.970887    3696.3116    15119.657    3878.4688    173.75559   -96194.163    8778.6779   -87415.485    351.31391    338.10151    138297.39   -119057.39   -86733.559    67.222689 
   26000   -91.292589     3770.277    15111.785    3914.5504    158.81437   -96189.634    8637.1057   -87552.528    345.64833   -1062.4183    137756.27   -119053.77   -89686.963    68.306865 
   27000   -17.904983    3811.0101    15190.396    3896.3702    165.15793   -96069.381    8767.5303   -87301.851    350.86779     297.8909    137721.54   -119114.41   -86703.529    65.333117 
   28000    54.888286    3764.4789    15076.497       3749.7    159.77498   -96269.311    8719.3066   -87550.004    348.93793    1056.7652    137632.48   -119074.65   -85428.835    67.491198 
   29000   -36.470787    3655.2407    15130.224    3914.3284    152.49076   -96262.481    8772.5831   -87489.898       351.07    568.50871    137776.79   -119078.29   -86347.574    65.393139 
   30000    -8.051637    3806.4753    15134.863    3841.3695    163.13248   -96149.528    8722.6675   -87426.861    349.07243   -491.53463    138236.94   -119087.32   -88417.816    67.287827 
   31000   -17.872722    3736.4028    15140.927    3862.3987    177.56612   -96171.549    8661.8322   -87509.716    346.63786   -641.28827    137520.99   -119070.97   -88795.886    67.555184 
   32000   -4.9841721    3710.1503    15095.615    3845.9379    150.89366   -96244.631    8726.1311     -87518.5    349.21104   -80.348032    138071.68   -119042.24   -87680.291    66.210902 
   33000   -19.104792    3639.6316    15184.602    3831.3023    144.96346   -96296.236    8703.5397   -87592.697    348.30696   -130.24802    137655.88   -119077.63   -87854.179    66.961296 
   34000    17.531578    3758.2324     15084.35    3854.5594     175.0379   -96192.204    8753.8511   -87438.353    350.32037   -14.586022     137726.1   -119081.92   -87467.651    66.954885 
   35000    2.2057827    3720.4545    15058.647    3866.9145    176.80096    -96265.23    8713.5519   -87551.678    348.70763   -904.73328    138272.92   -119090.25   -89376.135    67.323375 
   36000    33.239869    3730.8372    15057.493    3754.0513    158.98097   -96317.352    8771.2967   -87546.056    351.01852   -751.41478    138174.66   -119051.95   -89060.258    68.542041 
   37000    20.148438    3788.9399    15086.996    3888.6009    172.00757   -96102.513    8682.3428    -87420.17    347.45867   -481.38244    137943.34   -119059.21   -88388.597    67.799823 
   38000    5.8931257    3663.8766    15038.667    3864.2312    159.42948   -96343.178    8787.6594   -87555.519    351.67334    166.56195    137958.35   -119075.28   -87220.399    65.944343 
   39000    72.315891    3760.3184    15061.954    3797.2871    160.42557   -96240.333    8735.9872   -87504.345    349.60547    274.23043    138174.26   -119092.63   -86951.736     67.59584 
   40000    58.560656    3694.9398    15093.514    3875.4404    179.65607   -96119.828    8856.9208   -87262.907    354.44511   -293.28638    137875.53   -119021.94    -87852.64    68.837342 
   41000   -31.495136    3861.8462    15072.349    3866.4631    152.71436   -96102.967    8673.8395   -87429.128    347.11838   -491.39553    138156.08   -119024.84   -88419.223    67.425886 
   42000   -15.155998    3782.1508    15096.759    3796.9827      154.079   -96225.475     8727.687   -87497.788     349.2733   -725.52207    137779.85   -119040.29   -88955.635    66.547289 
   43000    30.089179    3683.8471    15117.428    3793.3717    168.74503   -96295.399     8787.295   -87508.104    351.65876    805.09042    137878.35   -119088.88   -85889.216    66.658606 
   44000    54.229336    3755.0516    15140.276    3766.5944    169.89472   -96209.637    8855.0163   -87354.621     354.3689    425.54668    138104.42   -119095.68   -86497.522    66.385427 
   45000    18.497562    3735.1435    15112.835    3802.9014    161.72217    -96233.37    8786.3701       -87447    351.62175    -471.5651    138110.92   -119064.47   -88396.829    66.900913 
   46000    10.385867    3642.6535     15107.69    3772.6988    148.72862    -96379.53     8787.894   -87591.636    351.68273   -176.25396    137718.65   -119061.69   -87945.639    68.318755 
   47000   -38.109195    3619.0381    15180.295    3878.7899    176.45784   -96205.448    8768.2341   -87437.213    350.89596    192.11413    137442.65   -119021.92   -87052.128    68.129869 
   48000   -31.464466    3751.0002     15143.17    3837.9096    150.37867   -96259.932    8763.2717    -87496.66    350.69737   -579.65069    138438.68   -119110.93   -88666.967    66.096369 
   49000   -37.082673    3744.0648    15077.337    3842.4627    182.98765   -96253.096    8778.3783   -87474.718    351.30192    -233.7713    137844.87   -119062.86   -87944.674    68.996475 
   50000    23.226345    3739.8187    15253.871    3819.2331    176.20669   -96052.481    8750.7316    -87301.75    350.19553    489.34653    138019.29   -119064.84   -86316.759    69.671981 
   51000    26.084434     3676.512    15101.475    3868.5806    169.94707   -96264.149    8761.5519   -87502.598    350.62854    674.53592    137410.17   -119106.75   -86150.837    67.684424 
   52000      38.7605    3656.9279     15134.34    3809.7135     169.1963   -96193.896    8882.1845   -87311.711    355.45614   -381.14293    138182.28   -119002.83   -88079.808    67.219493 
   53000   -7.1329591    3655.1396     15163.13    3816.8948    166.17843   -96229.989    8728.7182   -87501.271    349.31457    52.659065    138004.45    -119024.2   -87395.287    66.857027 
   54000   0.80723022      3646.43    15132.292    3768.2027    162.64888   -96322.825    8681.1985   -87641.626    347.41288   -396.98025    138076.58   -119033.21   -88441.028    69.234562 
   55000    4.6328423     3765.244    15175.224    3812.2634    158.62839   -96129.889    8728.9205   -87400.968    349.32267   -1060.9017    138185.06   -119045.88    -89538.99    69.307783 
   56000    12.945181    3729.0132    15062.495    3886.1099    157.92108   -96241.553    8705.9371   -87535.616     348.4029    247.49629    137811.67   -119090.04   -87038.187    65.049205 
   57000   -13.736115    3697.4298    14994.965    3896.3822    152.02594   -96333.426    8797.7233   -87535.703    352.07609    347.93957     137930.9   -119060.49   -86835.795    68.140445 
   58000    70.063842    3680.4457    15086.249      3833.65    172.41891   -96236.326    8815.8746   -87420.451    352.80248    600.11496    137488.73   -119079.15   -86217.141    66.846372 
   59000   -23.632891    3752.7924    15152.204     3897.802    161.25015   -96103.099    8820.8315   -87282.268    353.00085   -132.05735    137738.95   -119043.51   -87547.542    66.075323 
   60000    53.213467    3678.1122    15129.768    3784.2078    158.30689   -96259.637    8684.9236   -87574.713    347.56196    -232.9347    137686.47   -119063.25    -88042.45    67.104132 
   61000    83.246152    3809.8515    15209.661    3806.2926    158.93907   -95960.506    8715.0479   -87245.458     348.7675    1101.4294    137900.41    -119028.5   -85030.334    65.386008 
   62000    19.961484    3685.6022    15184.875     3796.194    155.85957   -96180.463    8663.5074   -87516.955     346.7049   -548.32445    138040.57   -119022.95   -88620.831    68.972181 
   63000   -56.773435    3789.4226    15165.584    3846.9666    175.58656   -96142.141    8894.9238   -87247.217    355.96595   -391.42654    138161.79   -119062.93   -88035.922    68.950634 
   64000    84.316587    3634.2261     15128.15    3752.7518    141.13257   -96335.385    8757.1593   -87578.225    350.45276   -279.45941    138230.25   -119075.96   -88141.601    69.058403 
   65000    9.6537258    3690.8691     15015.64    3852.1724    146.68652   -96373.885    8699.6949    -87674.19    348.15309    214.52205    138319.22   -119088.91   -87241.446    69.320544 
   66000    3.5385476    3668.7089    15263.631    3829.4586    163.33348   -96126.706    8678.5067   -87448.199    347.30516    247.63568     137609.8   -119055.38   -86951.219    67.039473 
   67000   -15.207205    3729.1619    15158.281    3757.3973    155.06162   -96287.858    8673.1922   -87614.666    347.09248   -687.43909    138553.41   -119072.55   -89003.746    67.482102 
   68000    9.5222545    3777.4083    15203.374    3811.7096    161.23937   -96112.366    8766.1124   -87346.254    350.81105    843.60279    138107.69   -119075.62   -85647.104    66.751972 
   69000   -23.040919     3690.821    15150.133    3785.0304    169.22022   -96298.139    8767.6046   -87530.534    350.87077   -162.05946    137890.72    -119070.3   -87856.435     66.50321 
   70000   -6.9467873    3736.7199    15180.467    3795.7998    165.62238   -96193.951    8768.1636   -87425.787    350.89314   -216.04597    137711.12   -119065.61   -87859.689    67.143606 
   71000   -4.1555913    3687.4847    15181.403    3810.4301    155.65731   -96204.595    8760.0398   -87444.555    350.56803   -8.4260314    137725.83   -119035.41   -87461.479     69.04337 
   72000    54.407565    3592.4036    15296.344    3821.4706    175.81054   -96113.157    8825.7675   -87287.389    353.19839     246.2967    137235.58   -119053.59   -86794.441    68.760341 
   73000     49.55845    3693.1451    15188.906    3848.0857    159.70756   -96126.397    8616.8029   -87509.594    344.83584   -86.887285    137735.71    -119065.8   -87684.127    68.779604 
   74000    15.167781    3582.0755    15121.192    3793.9727    155.37609   -96384.114     8750.025   -87634.089    350.16725    378.08164    138124.24    -119051.9   -86872.481    68.826398 
   75000    25.076936    3703.6251    15154.017    3739.4497    171.28922   -96237.853    8806.1621   -87431.691     352.4138    56.181947    137710.36   -119031.31   -87318.857    67.647954 
   76000   -6.5307998    3666.6236    15120.118    3826.0683    152.68387   -96267.682    8763.3483   -87504.334    350.70044   -48.846179    137584.36   -119026.65   -87602.345    66.129212 
   77000    47.836548    3704.9049    15124.118    3758.3017    158.78026   -96257.848    8725.7356   -87532.112    349.19521   -178.48726    137546.95   -119051.79   -87890.155    70.068487 
   78000    35.346642    3766.4049    15107.992    3791.9807    172.09077   -96202.218     8791.041   -87411.177    351.80867    560.71862    137556.09   -119076.03   -86286.311    70.846521 
   79000    43.356764    3756.2985    15145.797    3848.4737    151.31845   -96119.208     8646.525   -87472.683    346.02528    145.89032    137736.32   -119064.45   -87179.627    68.079438 
   80000    53.793808    3749.4253    15037.096    3768.5104    170.13605   -96305.058    8712.6911   -87592.367    348.67319   -323.62466       138493   -119084.02   -88246.017     70.85985 
   81000    22.658293     3717.776    15125.025    3813.1901    173.32825    -96176.94    8755.5247   -87421.415    350.38734    1182.5014     137737.1   -119028.92   -85046.061    68.984829 
   82000    25.916691    3713.7464    15188.548    3777.8064    157.09083   -96186.505    8733.6827   -87452.822    349.51325    101.04743     137783.7   -119049.61   -87249.774    68.758715 
   83000    21.864128    3697.6372    15156.102    3919.4034    156.47485   -96142.554    8736.9712   -87405.583    349.64485    438.75479    137654.91   -119094.04   -86524.758    67.909994 
   84000   -27.752871    3707.8795    15223.895    3828.9905    174.44393   -96136.973    8748.8285   -87388.144    350.11937     534.5388    137624.22   -119044.43   -86315.267    70.517997 
   85000    15.058851    3795.7887    15113.165    3811.1808    148.28331   -96199.614    8802.6258   -87396.988    352.27228   -753.40455    137820.47   -119083.09   -88911.309    66.992159 
   86000    46.109899    3697.3421    15108.079    3780.3964    181.51506   -96254.995    8725.7206   -87529.274    349.19461   -75.647607    138050.84   -119068.44   -87681.578    68.869622 
   87000   -17.908106     3764.345    15070.153    3987.6524    192.25835   -96115.023    8854.5339   -87260.489    354.34959    87.087721    137856.78   -119111.52   -87085.399    66.881146 
   88000    49.500251    3654.0476    15088.029    3891.0186    166.26018   -96211.064     8665.225   -87545.839    346.77364    137.56064    137616.45   -119059.92   -87269.755    67.394096 
   89000    78.776856     3698.641    15133.223    3826.7525     167.2189   -96176.191    8759.1463   -87417.045    350.53228   -278.31379    138023.56    -119080.8   -87977.272    67.501074 
   90000    57.454706    3751.4203    15240.497    3805.5829    167.75754   -96025.712    8772.7066   -87253.005    351.07495   -835.58624    137623.04   -119048.42   -88930.103    65.751078 
   91000    7.5915045    3723.8938    15203.207    3925.5976    143.70715   -96123.744    8795.8214   -87327.922    351.99998    707.33474    137275.39   -119127.74   -85911.824    67.537012 
   92000    53.544025    3700.1063    15213.252    3836.5084    177.09136   -96058.563    8628.6427   -87429.921    345.30965   -859.79817    138075.13   -119039.07   -89161.283    67.625991 
   93000    64.351744    3726.8437     15027.99    3813.7589    157.95198   -96296.783    8723.6507   -87573.133    349.11178   -536.01361    137750.63   -119087.68   -88649.958    69.115689 
   94000   -3.0710323    3752.2483    15106.072    3831.1949    155.37622   -96207.002    8773.6893   -87433.313    351.11427   -146.14121     137794.2   -119048.82   -87726.997    66.303803 
   95000   -8.8864804    3787.4454    15145.036    3807.9969    153.35875   -96193.434    8629.3972   -87564.037    345.33985    27.197177     138168.4   -119078.38   -87509.233    66.641476 
   96000   -26.120671    3640.1433    15201.371    3796.1436    164.55975   -96245.513    8739.3643   -87506.149    349.74062   -839.16259    138142.46   -119021.61   -89196.781    66.384391 
   97000    69.272707    3744.7333    15053.148    3728.8134    155.95202   -96298.556    8643.6941   -87654.861      345.912     275.2779    138032.62   -119050.47   -87100.709    68.327522 
   98000    29.534666    3663.8663    15177.815    3773.0508    148.03827   -96228.589    8790.6758   -87437.914    351.79405    276.78806    138186.68   -119020.89     -86880.1    67.559912 
   99000    38.882736    3676.6665    15162.338     3684.687    162.23147   -96346.618    8790.0699   -87556.548    351.76981   -68.110455    137780.25   -119071.42   -87693.408    65.304754 
  100000    27.204937    3776.1585    15045.328    3837.2404    171.47799   -96155.561    8826.9904    -87328.57    353.24733   -416.88503    137894.67   -119012.97   -88166.948    64.994496 
  101000    3.7609849    3759.6121     15111.23    3777.1553    166.16619   -96226.362    8699.1973   -87527.164    348.13318   -920.21251    138051.09   -119044.29   -89379.859    65.790353 
Loop time of 1482.95 on 56 procs for 100000 steps with 8384 atoms

Performance: 5.826 ns/day, 4.119 hours/ns, 67.433 timesteps/s
97.0% CPU use with 56 MPI tasks x no OpenMP threads

MPI task timing breakdown:
Section |  min time  |  avg time  |  max time  |%varavg| %total
---------------------------------------------------------------
Pair    | 787.45     | 931.17     | 1059       | 232.1 | 62.79
Bond    | 30.566     | 42.018     | 51.501     | 119.3 |  2.83
Kspace  | 231.8      | 369.66     | 525.63     | 405.6 | 24.93
Neigh   | 15.633     | 15.714     | 15.807     |   1.2 |  1.06
Comm    | 15.714     | 18.149     | 24.3       |  58.2 |  1.22
Output  | 0.0070853  | 0.0071904  | 0.0088835  |   0.3 |  0.00
Modify  | 87.135     | 102.37     | 107.33     |  55.8 |  6.90
Other   |            | 3.864      |            |       |  0.26

Nlocal:        149.714 ave         200 max         119 min
Histogram: 6 6 8 9 13 5 6 2 0 1
Nghost:        4843.89 ave        4985 max        4671 min
Histogram: 8 0 1 1 6 13 12 8 6 1
Neighs:        52084.9 ave       70157 max       40090 min
Histogram: 4 5 7 13 13 7 2 3 1 1

Total # of neighbors = 2916756
Ave neighs/atom = 347.89552
Ave special neighs/atom = 6.1984733
Neighbor list builds = 3995
Dangerous builds = 0
write_data      data_1_relax.*
System init for write_data ...
PPPM initialization ...
  using 12-bit tables for long-range coulomb (../kspace.cpp:340)
  G vector (1/distance) = 0.26889118
  grid = 48 48 48
  stencil order = 5
  estimated absolute RMS force accuracy = 0.00031849497
  estimated relative force accuracy = 9.5913815e-07
  using double precision FFTW3
  3d grid and FFT values/proc = 8246 2016
WARNING: Not all mixed pair coeffs generated from mixing. Use write_data with 'pair ij' option to store all pair coeffs. (../write_data.cpp:312)
unfix 1

fix             1 all npt temp  ${TEMP} ${TEMP} 100  tri  2000 2000 1000
fix             1 all npt temp  350 ${TEMP} 100  tri  2000 2000 1000
fix             1 all npt temp  350 350 100  tri  2000 2000 1000
run		500000
PPPM initialization ...
  using 12-bit tables for long-range coulomb (../kspace.cpp:340)
  G vector (1/distance) = 0.26889118
  grid = 48 48 48
  stencil order = 5
  estimated absolute RMS force accuracy = 0.00031849497
  estimated relative force accuracy = 9.5913815e-07
  using double precision FFTW3
  3d grid and FFT values/proc = 8246 2016
WARNING: Inconsistent image flags (../domain.cpp:814)
Per MPI rank memory allocation (min/avg/max) = 22.51 | 22.71 | 23.06 Mbytes
Step E_vdwl E_bond E_angle E_dihed E_impro PotEng KinEng TotEng Temp Press Volume v_coulomb Enthalpy S/CPU 
  101000    3.7609849    3759.6121     15111.23    3777.1553    166.16619   -96226.362    8699.1973   -87527.165    348.13318   -920.21211    138051.09   -119044.29   -89379.859            0 
  102000   -28.071063    3672.8495    15202.094    3978.4692    154.62703   -96064.297    8766.0683   -87298.229    350.80929    1460.0243    133395.08   -119044.27   -84457.854    64.903722 
  103000    8.2787408    3610.1091    15236.212    3887.2238    165.23994   -96193.599    8654.4782   -87539.121    346.34356    2421.4151    132228.42   -119100.66   -82869.626    65.573387 
  104000   -91.601391    3631.4575    15174.947    4032.7612    148.02913   -96148.989    8857.6093   -87291.379    354.47267    1059.6983    129444.44   -119044.58   -85290.866    63.641571 
  105000   -118.13998    3666.1548    15161.529    4182.1019    167.65527    -95970.37    8821.8117   -87148.559    353.04008    2716.2254    125913.85   -119029.67   -82160.688    63.120104 
  106000   -235.73439    3596.0411    15266.185    4262.3115    166.59011   -96014.985    8758.5024   -87256.482    350.50651    1526.1227    123383.14   -119070.38   -84510.352      64.1743 
  107000   -289.89756    3512.0934    15313.519    4378.4301    168.15201   -96044.492    8671.2594   -87373.232    347.01513    2941.8647    119641.94   -119126.79   -82240.105    63.071128 
  108000   -358.46018    3562.7147    15309.076    4457.7997     180.6095   -95971.693    8733.1238   -87238.569    349.49088    3303.9666    117424.71   -119123.43   -81580.463    62.067205 
  109000   -523.10843    3756.4807    15403.507    4580.8412    177.62789   -95789.296    8750.0584   -87039.238    350.16859    1613.9213    113990.28   -119184.64   -84356.204    61.212101 
  110000   -576.87652    3527.9033    15415.947    4660.1966    168.73494   -95938.217    8587.1568    -87351.06    343.64943    1545.5082    111452.07   -119134.12   -84838.969     58.51132 
  111000   -657.10984    3710.2265      15277.1    4686.8136    177.31737   -96026.205    8872.7067   -87153.498    355.07685     1744.226       111015   -119220.55   -84329.527     58.41806 
  112000   -759.28128     3606.053    15368.479    4785.4791    151.20833   -96052.432    8772.2877   -87280.144    351.05818    1452.8173    108204.22   -119204.37    -84987.53    56.006501 
  113000   -732.03652    3531.8007    15456.513    4757.8856    169.71653   -95960.933    8690.4421   -87270.491     347.7828    2227.7756    107411.26   -119144.81   -83780.718    54.921699 
  114000   -858.59596    3641.1536     15430.36    4825.5422    177.85173   -96026.305    8667.9607   -87358.344    346.88312   -237.43898    106602.87   -119242.62   -87727.489    56.620441 
  115000   -831.97826    3547.7432    15352.323    4765.6032    165.62859   -96194.006    8644.6308   -87549.375    345.94948    1542.6498    105909.44   -119193.33   -85166.628    57.079916 
  116000   -876.94741    3610.8294    15346.411    4862.1185    162.35457   -96128.386    8792.0727   -87336.313    351.84996    2209.5628    105393.55   -119233.15   -83940.089    57.579351 
  117000   -911.09072    3674.1313    15464.945    4786.2504    172.33415   -95951.163    8792.9611   -87158.202    351.88551    791.20703    105120.54   -119137.73   -85945.222    56.105602 
  118000   -916.97904    3625.5202    15340.875    4879.7741    170.24014   -96110.952    8716.3736   -87394.578    348.82055    1981.2457    105212.23   -119210.38    -84354.53    56.057696 
  119000   -949.88896    3628.8637    15361.114    4901.5908    156.12435   -96110.323    8862.8113   -87247.512    354.68085    1396.4324    104324.51   -119208.13   -85122.888     56.82813 
  120000   -977.63707    3686.5223     15348.64    4917.1677    173.85149   -96030.378    8886.6634   -87143.715    355.63538    1282.6511     103800.7   -119178.92   -85202.003    54.807666 
  121000   -1025.5029    3683.1787    15398.729    4902.8945      159.975   -96114.742    8740.0387   -87374.704    349.76761    628.74863    103914.37   -119234.02   -86421.845     54.64399 
  122000   -972.80525    3595.3567    15430.896    4915.0309    163.93322   -96092.477    8718.5559   -87373.921    348.90789    2337.4756    102746.55   -119224.89   -83871.324    54.848341 
  123000   -1008.4562    3586.7431    15424.523    4888.5091    150.40825   -96224.967    8646.0366    -87578.93    346.00574    1617.7441    102846.92   -119266.69   -85152.449    54.998942 
  124000   -1040.7813    3631.7898    15454.371    4944.3768    166.51005   -96074.921    8747.9056   -87327.015    350.08244    2624.9098    102686.85   -119231.19   -83395.996    54.914644 
  125000   -1058.5927    3630.3695    15447.149    4938.4457     168.6334   -96122.351    8785.7403    -87336.61    351.59654     1346.105    101973.37   -119248.36   -85334.714    56.690904 
  126000   -983.49353     3636.052    15381.664    4872.8801    161.37597   -96186.081     8718.561    -87467.52    348.90809    2305.5386    102336.86   -119254.56   -84026.554    55.800433 
  127000   -1036.5236    3697.8156    15424.482    4863.9998    165.92287   -96109.861    8879.9952   -87229.865    355.36853    1644.6884    102089.65   -119225.56   -84781.133    55.163082 
  128000   -1055.5153    3611.6437    15390.123    4932.2412    163.19726   -96216.224    8799.1072   -87417.116    352.13147    2320.7303    101582.78   -119257.91   -83978.999    55.424108 
  129000   -981.69496    3559.8879    15383.281    4815.4049    158.52501   -96300.758    8765.9068   -87534.851    350.80282    2714.8936    102079.84   -119236.16   -83493.108    53.746716 
  130000   -1077.6603    3662.6449    15282.009    4928.1732    155.01976   -96259.351    8783.6152   -87475.735     351.5115    677.71924     101735.3   -119209.54     -86470.2    54.498268 
  131000   -1079.6612    3636.7333    15457.017    4923.1392    177.28888   -96212.019    8617.2087    -87594.81    344.85207    1491.1499    101622.51   -119326.54   -85384.837    54.414789 
  132000   -1096.0856    3647.8288    15417.314    4998.9621    168.04668   -96128.189    8779.6433   -87348.546    351.35254    1758.6547    100722.15   -119264.26   -84765.206    55.312959 
  133000   -1079.7877     3686.314    15409.609    4900.1338    162.67991   -96170.588    8808.0851   -87362.503    352.49076    985.91226    101143.85   -119249.54   -85908.204    54.318745 
  134000   -1112.2202    3561.5929    15344.788    4950.2668    166.84451   -96305.515    8802.9855    -87502.53    352.28668     2002.325    99968.688   -119216.79   -84583.258    54.757171 
  135000    -1180.746    3622.6747    15411.339    4988.6861     171.6435   -96245.962    8738.3081   -87507.654    349.69835    2142.3688    99470.392   -119259.56   -84399.776      55.3034 
  136000   -1077.1444     3643.293     15415.93    4922.6404    166.89831   -96151.608    8751.3522   -87400.255    350.22037    2091.2165    100326.16   -119223.23   -84340.483    55.095093 
  137000   -1115.4506    3593.8886    15391.881    4941.2737    155.08237   -96287.023    8771.4542   -87515.569    351.02483    1552.1034    100354.26    -119253.7   -85243.966    55.314559 
  138000   -1085.8634     3671.526    15370.233     4883.164    153.27436   -96296.525    8808.2923   -87488.233    352.49905    1531.7437    100577.34   -119288.86   -85241.444    55.419237 
  139000   -1121.7253    3663.3455    15345.928    4933.6402    178.77172   -96300.113    8821.6775   -87478.436    353.03471    1818.4674    99349.033   -119300.07   -84843.651    54.577314 
  140000   -1109.2613    3583.0334    15414.097    4822.0283    172.47762   -96363.722    8670.0258   -87693.697    346.96576    2164.4184     99748.08    -119246.1   -84545.066    53.712755 
  141000   -1200.0256     3672.268    15514.321    4883.8568    181.13253    -96208.24    8702.4981   -87505.742    348.26527     1669.061    98894.497   -119259.79   -85098.498    55.356242 
  142000     -1164.74    3643.7385    15571.241    4918.3328    168.03923   -96143.001    8649.2688   -87493.732    346.13509    1384.3074     99282.71   -119279.61   -85489.343    54.761301 
  143000   -1221.9495    3706.8354    15416.087    4916.6188    167.00154   -96223.021    8666.5924   -87556.429    346.82836    1833.4068    98738.189   -119207.61   -84916.332    55.104731 
  144000   -1209.9896    3655.8239    15383.856    4922.8018    167.29412   -96334.302    8781.5979   -87552.704    351.43077    3015.9347    98412.689   -119254.09    -83224.09    53.696635 
  145000   -1251.2326    3679.3977    15526.843    4932.9867    155.49682   -96211.022    8644.6741   -87566.348    345.95121    1562.9102    97849.282   -119254.51   -85336.026    54.114276 
  146000   -1185.3134     3621.343    15383.672    4805.9506    168.47305   -96394.466    8768.2571   -87626.209    350.89688    706.32705    99280.192   -119188.59   -86603.519    54.533613 
  147000   -1212.8025    3647.8907    15484.377    4911.9165     168.9338   -96240.027     8917.465   -87322.562    356.86803    3007.8249    98483.857   -119240.34   -83002.465    55.746214 
  148000   -1187.6773    3719.8859     15389.11    4897.4091    157.32502   -96287.539    8654.0448   -87633.494    346.32622    2274.5215    98589.401   -119263.59   -84363.129    55.366905 
  149000   -1183.1351    3703.5922    15416.364    4908.9259    168.58803    -96261.76    8745.2169   -87516.543    349.97483    2226.2946    98519.113   -119276.09   -84317.802    54.938478 
  150000   -1168.5387    3694.3013    15488.227    4884.9301    165.88929   -96242.275     8858.945    -87383.33    354.52612    1812.1318    98096.854   -119307.08   -84790.818    53.958617 
  151000   -1193.8102    3683.2969    15443.112    4898.0279    165.40864   -96288.992    8767.6087   -87521.383    350.87093    1901.3113    98940.856   -119285.03   -84777.884    55.337697 
  152000   -1177.4214    3749.8454    15468.305    4849.5381    170.66673   -96202.922    8578.0289   -87624.893    343.28414    1236.5025    97876.932   -119263.86   -85859.867     53.64795 
  153000   -1162.3823    3663.3254    15489.049    4919.1864    155.40179   -96200.726    8778.2014   -87422.524    351.29484    3350.9413    98243.551   -119265.31   -82621.358    54.951377 
  154000   -1115.2696    3721.4305    15467.613    4798.9374    179.03214   -96176.134    8838.6999   -87337.435    353.71593    2565.6239    98705.705   -119227.88   -83644.164    55.827597 
  155000   -1150.0131    3612.6077    15410.574    4906.5631    172.91913   -96271.069    8709.3545   -87561.714    348.53966    2522.2318    99174.681   -119223.72   -83913.657    55.161911 
  156000   -1147.6132    3697.6643    15476.121    4906.5604    185.74748   -96213.277    8882.4601   -87330.817    355.46717    1577.4903    98463.916   -119331.76   -85065.549    55.363423 
  157000   -1238.3369    3618.5601    15469.378    4933.0487    174.05057   -96333.599    8795.2026   -87538.396    351.97521    2377.0525    97737.831    -119290.3   -84150.131    54.250035 
  158000   -1176.6067    3622.1421    15400.516    4945.8178    153.95128   -96342.377    8742.1648   -87600.212    349.85269    3185.2109    97595.337    -119288.2   -83066.613    55.089325 
  159000   -1282.5836     3706.083    15519.963     4987.294    158.36509    -96214.81    8686.5472   -87528.263    347.62693    1709.6951    97825.682   -119303.93   -85089.063    54.561294 
  160000   -1206.8888    3696.7845    15539.108    4957.0412    171.85967   -96126.663    8732.6193   -87394.044    349.47069    1663.3472    97473.027   -119284.57   -85029.523    55.370198 
  161000   -1153.8717    3668.2629    15428.474    4917.4846    163.71605   -96253.093    8722.3769   -87530.716     349.0608    4302.3208    97734.555   -119277.16   -81398.368    54.587227 
  162000   -1224.9109    3641.3432    15471.889    4945.5145    169.85871   -96312.801    8713.4284   -87599.373    348.70269    2193.7133    97839.027    -119316.5   -84469.203    54.943029 
  163000   -1174.6147    3641.3504     15473.11     4881.207    178.06255   -96294.463    8815.1397   -87479.323    352.77307    3430.8563    97690.621   -119293.58   -82591.322    54.540648 
  164000   -1195.4519    3684.9468    15453.385    4896.3449    162.10529   -96282.038    8761.2788   -87520.759    350.61762      2416.06    97559.251   -119283.37   -84083.185    54.646559 
  165000   -1229.3357    3692.8761    15435.198    4874.2572    154.13015   -96324.274    8758.0121   -87566.262    350.48689     2558.043     98352.24    -119251.4    -83897.09    55.425321 
  166000   -1267.8344    3671.4935    15479.908    4942.9172    163.30291   -96295.235    8850.3385   -87444.896     354.1817    845.23182    97838.411   -119285.02   -86238.858    54.702641 
  167000   -1246.7839    3585.2185    15538.123    4935.1736    161.40175   -96306.517    8729.4933   -87577.024    349.34559    2917.7527     97487.57   -119279.65   -83428.691    53.977654 
  168000   -1244.3768    3603.2439    15501.587    4953.6775    178.01719   -96303.549    8824.4564   -87479.093    353.14592    1989.5985    98132.322    -119295.7   -84631.661    53.750222 
  169000   -1218.5073    3578.3016    15366.168    4908.4978    162.16456   -96447.501    8703.4871   -87744.014    348.30485    1738.8913    97994.156   -119244.13   -85258.888    55.121411 
  170000   -1196.3127    3786.6704    15381.669    4810.9352    153.96109   -96325.413     8641.148   -87684.265     345.8101    1672.4469     98144.08   -119262.34    -85290.44    54.457276 
  171000   -1265.6595    3667.9086    15424.448    4896.9585    169.15907   -96336.905    8852.1931   -87484.712    354.25591     1264.086    98156.627   -119229.72   -85675.156    54.261759 
  172000   -1213.0829    3682.6525    15400.665    4924.1953    186.90326   -96261.602    8710.2011   -87551.401    348.57354    1693.6309    98066.683   -119242.94   -85129.167    54.397198 
  173000   -1173.4472    3651.8801    15409.985    4865.5091    180.66845   -96347.544    8801.3564   -87546.187    352.22148    2040.6659    97856.066   -119282.14   -84633.891    54.956774 
  174000   -1241.3605    3740.2893    15485.937    4887.9087    183.89709   -96210.877    8669.2616   -87541.615    346.93518    1576.9666     98474.72   -119267.55    -85276.85    54.932212 
  175000   -1239.2758    3653.4152    15483.101    4922.8927    179.22002   -96256.145    8843.0619   -87413.083    353.89049    2243.0798     97796.45    -119255.5   -84213.866    53.793036 
  176000   -1199.6424    3647.0438    15531.648    4871.9211    168.18629   -96261.233    8711.3267   -87549.906    348.61858    1383.4349    98100.363   -119280.39   -85570.635    54.368714 
  177000    -1182.636    3686.8305    15504.028    4878.1489    177.12077   -96263.173    8683.8128    -87579.36     347.5175    2767.5763    97683.741   -119326.66   -83636.623    55.031367 
  178000   -1160.0471    3699.9274    15467.239     4807.856    175.42398   -96284.512    8757.7055   -87526.806    350.47462     1265.705    99002.114   -119274.91   -85699.325    54.843263 
  179000   -1308.3453    3605.2606    15464.879    4915.4461    161.06518   -96445.058     8593.017   -87852.041    343.88395    479.55607    97890.413   -119283.36   -87167.412     54.48518 
  180000   -1193.9449    3792.6313     15451.45    4897.9814    159.01738   -96174.973    8773.4136    -87401.56    351.10324    1323.5037    97949.211   -119282.11   -85510.949    54.723386 
  181000   -1227.1303    3649.0892    15536.634     4882.021    183.17401   -96227.161    8678.0529   -87549.108      347.287    2361.8722    97649.432   -119250.95   -84185.526    54.023226 
[...]
 1009000   -1184.5603    3732.7062    15361.071    4808.9885    161.73314   -96397.414    8793.2949   -87604.119    351.89887    478.04353     100195.7   -119277.35   -86905.577    52.760943 
 1010000   -1210.7546    3589.5159    15453.974    4770.0813    163.00949   -96511.834    8668.6546   -87843.179    346.91089    482.36822    100725.54   -119277.66    -87134.59    53.088909 
 1011000   -1224.0334    3574.7161    15448.142    4812.8881    158.75689   -96429.843    8882.5817   -87547.261    355.47204    874.68094    100410.42   -119200.31   -86266.393    52.570061 
 1012000   -1124.2515    3627.1358    15382.433    4829.2453      170.779   -96382.047    8668.4812   -87713.566    346.90395    2048.6649    99933.524   -119267.39   -84727.785     52.73276 
 1013000   -1163.4017    3696.5851        15419    4823.2182    173.82411   -96279.767    8751.7037   -87528.063    350.23443    730.79861    99960.538   -119228.99   -86462.689      53.0148 
 1014000   -1209.0057    3643.7048    15528.239     4823.932    161.80807   -96331.577    8670.9497   -87660.627    347.00274    1264.3573    100113.92   -119280.25   -85814.591    53.209408 
 1015000   -1187.5084     3703.695    15406.988    4839.9953    163.98498   -96343.784     8704.526   -87639.258    348.34643    2149.2689    100315.62   -119270.94   -84494.877    52.388038 
 1016000    -1146.102    3718.6212    15408.628    4863.4972    160.61681   -96205.311    8631.7717   -87573.539    345.43487    1070.4011    101433.05   -119210.57   -85990.098    53.402671 
 1017000   -1149.3787    3697.4462     15483.15    4800.7265    161.28205   -96258.556     8678.948   -87579.608    347.32282    904.80099    100762.01   -119251.78   -86249.994    53.920983 
 1018000   -1168.6863    3809.5222    15423.073    4732.1113    165.53252   -96295.798    8808.2668   -87487.531    352.49803    702.16363    100457.94   -119257.35   -86458.808    53.291962 
 1019000    -1211.061    3687.2326    15355.441    4792.6965    168.48644   -96448.389    8759.6717   -87688.718     350.5533    1539.4098    99590.907   -119241.18   -85452.831     52.19414 
 1020000    -1212.568    3787.2974    15357.095    4765.1728    164.22046   -96390.076    8785.9791   -87604.097     351.6061    177.58464    99799.489   -119251.29   -87345.628    52.975866 
 1021000     -1232.44    3659.0099    15340.714    4854.4893    171.46984   -96472.027    8613.9238   -87858.104    344.72062    1351.7467    99437.052   -119265.27   -85897.818    53.263463 
 1022000    -1142.007    3792.3784     15432.77    4847.2827    153.41194   -96230.107    8754.1925   -87475.914    350.33403    471.95352    101020.76   -119313.94   -86780.593      52.1523 
 1023000   -1140.1631    3674.6472    15432.317    4762.1727    165.96159   -96344.307    8686.5133   -87657.794    347.62557     801.3004       101026   -119239.24    -86477.19    52.168289 
 1024000   -1177.0186    3742.1317    15527.101    4770.0395    168.75786   -96213.233    8759.0349   -87454.198    350.52782    1785.4824    99714.021   -119244.24   -84857.702    53.552895 
 1025000   -1126.1031    3597.6039    15486.059    4761.2341    158.63534   -96401.448    8746.6303   -87654.817     350.0314    1967.3992    100056.86   -119278.88   -84783.936    52.672103 
 1026000   -1199.4746    3713.6046    15451.105    4772.2094    161.14315   -96315.584    8720.3203   -87595.264     348.9785    699.35613    100841.09   -119214.17   -86566.746    52.605669 
 1027000   -1127.1864    3588.4842    15496.394    4804.3294    164.66442   -96351.319     8701.278   -87650.041    348.21644     2150.259     100324.3   -119278.01   -84503.939    53.379584 
 1028000   -1166.3172    3649.6365    15418.479    4826.3298    154.72873   -96368.683    8780.3236    -87588.36    351.37977    1613.3952     99718.01   -119251.54   -85242.023    52.949336 
 1029000   -1183.9857    3540.5389    15430.715    4798.3888    168.88505   -96503.741    8739.9333   -87763.808    349.76339    598.64958    100500.09   -119258.28   -86886.372    53.838099 
 1030000   -1177.2521    3651.9097    15371.012    4811.4338     168.9423   -96436.604    8687.9107   -87748.694     347.6815    1370.7452     100077.3   -119262.65   -85748.057    53.320699 
 1031000   -1177.5021    3745.4535    15481.011    4805.9522    152.23028   -96260.195    8728.5262   -87531.669    349.30689    1065.0979     100152.1   -119267.34    -85975.97    52.837157 
 1032000   -1152.9672    3718.8304    15405.539    4836.4724    169.38724   -96247.962    8621.8166   -87626.145    345.03648    791.87722    101284.61   -119225.22   -86456.438    52.006477 
 1033000   -1164.8019    3674.6659    15452.524    4834.3988    176.51031    -96299.57    8805.0416   -87494.528    352.36896    893.09296     99332.91   -119272.87   -86200.732    52.607758 
 1034000   -1212.3641     3730.924    15407.916    4780.0942    163.18289   -96416.642     8702.797   -87713.845    348.27723    -3.218928    100636.54    -119286.4   -87718.569    52.965731 
 1035000   -1178.8031     3713.185    15299.525    4930.3163     168.6304   -96288.416    8727.3677   -87561.048    349.26053   -106.57157    100352.59   -119221.27    -87717.02    53.072654 
 1036000   -1192.6772    3676.1421    15438.968    4782.7345    167.67115    -96327.61    8814.0019   -87513.608    352.72754    140.92695    100718.32   -119200.45   -87306.604    53.126585 
 1037000    -1233.686    3625.5593     15519.42    4825.1083    149.41381   -96346.366    8560.0696   -87786.296    342.56542    1673.8998    99954.636   -119232.18   -85346.193    52.224298 
 1038000   -1142.6813    3709.7446    15327.007     4803.422    157.33736   -96387.169    8859.5318   -87527.637     354.5496    219.01312       100174      -119242   -87207.674     52.13829 
 1039000   -1146.2586    3685.9309    15411.905    4766.1533    181.74452   -96346.396    8823.1384   -87523.258    353.09318    1157.7941    100936.54   -119245.87    -85818.92    52.638375 
 1040000   -1196.2701    3700.4642    15485.085    4834.7215    164.65144   -96289.813    8816.9102   -87472.903    352.84393    1434.6423    100638.36   -119278.46   -85367.268     52.30958 
 1041000   -1103.9254    3747.8258    15342.768    4789.8544    179.94814   -96321.536    8795.6522   -87525.884    351.99321    560.78538    100291.36   -119278.01   -86705.653    52.477227 
 1042000   -1156.5196    3709.3227    15370.747    4799.7761     162.8673   -96349.634    8722.0991   -87627.535    349.04968    2389.9657     100646.1   -119235.83   -84119.495    52.142797 
 1043000   -1143.0778     3744.121    15393.167    4741.6985    158.82782   -96364.439    8770.5577   -87593.882    350.98895    1402.2128    100436.32   -119259.18   -85539.975    50.197933 
 1044000   -1235.7126    3722.7671    15416.998    4834.5832    160.39434    -96299.76     8754.341   -87545.419    350.33997   -325.24867    100344.78   -119198.79   -88021.396    52.033525 
 1045000   -1171.0916    3722.1651    15319.852    4820.7203    157.57751   -96400.597    8772.1741   -87628.423    351.05363    1435.1945    100278.15   -119249.82   -85529.517    52.182806 
 1046000   -1154.8446    3583.3332    15396.231    4775.6805    160.02697   -96518.337     8736.495   -87781.842    349.62579    2200.7048    99945.275   -119278.76   -84574.096    52.012891 
 1047000   -1114.5487    3720.8686    15433.457    4764.5008    151.15759   -96270.588    8691.3735   -87579.215    347.82008    505.37346    101195.53   -119226.02   -86833.368    53.002987 
 1048000   -1171.9951    3645.2681    15476.952    4788.1375    192.91251   -96302.006    8797.1564   -87504.849     352.0534    1311.9919    100673.34   -119233.28    -85578.56    53.115134 
 1049000   -1197.0334    3651.4849    15360.487    4840.7735     161.7478   -96446.983    8699.3144   -87747.668    348.13786    1734.6134    100794.51   -119264.44   -85197.813    52.424565 
 1050000   -1127.2453    3722.6715    15336.372    4805.4921    155.00593   -96306.067    8792.6434   -87513.424     351.8728    577.55005     100475.5   -119198.36   -86667.121    52.497277 
 1051000   -1256.2075    3655.3879    15372.337    4870.1206    174.35536   -96411.845    8779.0252    -87632.82    351.32781    768.19438    99653.436   -119227.84    -86516.37    52.035626 
 1052000   -1171.1442    3704.9452    15386.833    4764.8371    176.13762   -96357.753    8772.8945   -87584.859    351.08247    540.92056    100119.74   -119219.36   -86795.037    52.563733 
 1053000    -1197.434    3762.2571    15456.373    4750.1639    170.79501   -96281.612    8794.5366   -87487.075    351.94856    113.58364    100952.91   -119223.77   -87319.847    52.515834 
 1054000   -1150.6019    3722.1307    15368.833    4845.8705    183.67503   -96255.709    8895.1548   -87360.554     355.9752    39.162361    101767.94   -119225.62    -87302.43    53.322021 
 1055000   -1223.5008    3683.7844    15398.929    4864.1609    166.16839   -96329.369    8742.5013   -87586.867    349.86616    218.83289    100889.27   -119218.91   -87264.884     52.69391 
 1056000   -1233.9526    3705.6418    15378.254    4847.4113    168.03379    -96389.03    8626.2148   -87762.815    345.21249   -823.28846    100720.99   -119254.42   -88972.153    53.132263 
 1057000   -1193.8171    3664.1805      15398.2    4884.8019    163.26331   -96332.335    8789.0563   -87543.279    351.72924    671.01471    100072.98   -119248.96   -86563.958    53.115469 
 1058000   -1226.0181    3731.9206    15501.595    4893.3461    161.61228    -96212.53    8750.5011   -87462.029     350.1863    563.25071    99734.084   -119274.99    -86642.77    52.091152 
 1059000   -1232.4865      3667.16    15433.093    4822.1142    178.94929   -96363.345    8680.7901   -87682.555    347.39654   -18.697557     99861.04   -119232.18   -87709.785    52.588232 
 1060000   -1249.4792     3693.426    15541.177    4845.9477    170.61144   -96280.926     8730.185   -87550.741    349.37327     898.1346    100106.37   -119282.61    -86239.51    54.589104 
 1061000   -1263.1774    3649.3782    15348.339    4928.1343    153.71633   -96462.179    8755.1882    -87706.99    350.37388    1021.6507    99271.941   -119278.57   -86227.865    54.410883 
 1062000   -1154.3956    3702.4748    15410.715    4809.6113    156.53393   -96263.821    8856.3076   -87407.514    354.42057    523.87714    100784.17   -119188.76   -86637.501      53.3403 
 1063000   -1219.3007    3764.9728    15375.974    4849.2228    167.94026   -96296.168    8646.3211   -87649.846    346.01713    520.27692    100030.19   -119234.98   -86890.847     53.62898 
 1064000   -1199.0431    3698.8833    15495.401    4866.4746    148.31003   -96220.598     8760.511   -87460.087    350.58689    1170.9306    99249.596   -119230.62    -85765.22     53.51735 
 1065000   -1214.7129    3738.6534    15415.667    4804.0472    169.50539   -96321.639     8763.699    -87557.94    350.71447    809.83834    100070.65    -119234.8    -86376.04    53.982674 
 1066000   -1235.4877    3756.9796    15352.505    4843.5563    170.25787   -96321.095    8696.9794   -87624.115    348.04442   -503.50627    100738.95   -119208.91   -88363.854    52.056397 
 1067000   -1227.0333    3698.2969    15411.844    4884.1869    167.11312   -96299.526    8687.3527   -87612.173    347.65917    1619.2121    99419.991   -119233.93   -85264.415    53.325993 
 1068000   -1247.2774    3760.5126    15445.959    4812.0255    153.96963   -96321.443    8609.0794   -87712.363    344.52675    11.031783    99444.033   -119246.63   -87696.364    52.961574 
 1069000   -1257.5306    3733.4949    15489.555    4716.9485    177.27004   -96363.609     8763.933   -87599.677    350.72383    152.22916    99882.148   -119223.35   -87377.928    53.166764 
 1070000   -1218.5983    3709.3641    15351.221    4735.5814    177.28351   -96422.133    8677.1179   -87745.015    347.24958     1624.116    99832.653   -119176.98   -85380.372    53.589572 
 1071000   -1253.9628    3665.7646    15468.841    4829.7361    174.14301   -96351.656    8827.0194   -87524.637    353.24849    625.25713     99964.76   -119236.18   -86613.085    52.722333 
 1072000   -1236.0704     3807.185    15437.208    4801.1861    143.36881   -96331.549    8632.9368   -87698.612     345.4815    576.09502    100189.14   -119284.43   -86856.847    52.514224 
 1073000   -1200.5986    3676.3303    15417.189    4774.8497    164.54393   -96426.468    8702.7857   -87723.682    348.27678    1915.3945    100243.58   -119258.78   -84923.472    53.519851 
 1074000   -1252.6391    3858.0326    15456.036    4834.5825    176.95311   -96163.956    8648.0211   -87515.935    346.08515    934.15926    99470.829   -119236.92   -86160.769    52.852038 
 1075000   -1224.5415    3670.4177    15482.484    4808.4209    159.52719   -96332.704    8605.6728   -87727.031    344.39042    312.96021    100054.14   -119229.01   -87270.363    52.588774 
 1076000   -1145.3453    3672.5815    15462.103     4797.423    160.76829   -96339.372    8765.5603   -87573.812    350.78896    1105.0407    100626.69    -119286.9   -85952.124    52.460751 
 1077000   -1240.2024    3611.0683    15495.766    4829.6027    159.86524    -96417.39    8858.8886   -87558.501    354.52386    2133.4358    99686.117   -119273.49    -84456.87    52.521469 
 1078000   -1182.0582    3668.1998    15509.542    4824.6994    158.48339   -96312.263    8762.1216   -87550.141    350.65134    3236.1874    99313.557   -119291.13   -82862.891    52.967818 
 1079000   -1256.9067    3650.0783    15355.815    4812.4118    162.82458   -96527.003    8827.7769   -87699.226     353.2788   -501.30013    99884.624   -119251.23   -88429.477    52.886467 
 1080000   -1246.6018    3695.4237    15412.081    4874.1882    161.72112   -96395.142    8771.6251   -87623.517    351.03167    936.58614    98964.114   -119291.95   -86271.751    52.745173 
 1081000   -1211.5848    3724.5317    15375.599    4902.2138    162.41324   -96293.198    8799.2779    -87493.92     352.1383    706.15315    99796.867   -119246.37    -86466.16    52.326551 
 1082000    -1214.332    3644.0194     15403.57    4941.1159    166.20303    -96303.21    8754.2121   -87548.997    350.33482    1634.2224    99518.954   -119243.79   -85177.117    52.289028 
 1083000    -1216.367     3695.344    15454.591    4873.9224    158.99859   -96307.277    8703.6416   -87603.635    348.31103    785.83581    99844.603   -119273.77   -86459.355     52.93491 
 1084000   -1251.2293    3736.8181    15438.735    4850.0443    171.74882   -96325.598     8838.017   -87487.581     353.6886    116.86823    99461.796   -119271.72   -87318.058    52.669015 
 1085000   -1185.0548    3671.0269    15503.522    4764.3381      166.526   -96294.759    8685.3358   -87609.424    347.57845    1294.3658    98850.579   -119215.12   -85743.422    51.432159 
 1086000   -1202.6679    3725.8342    15378.286    4863.6794    170.49359   -96316.186    8678.2854     -87637.9     347.2963     1348.418    99482.993   -119251.81   -85681.538    51.532736 
 1087000    -1159.228    3609.0541    15305.477     4800.297    164.37545   -96501.929    8762.0582   -87739.871    350.64881    1409.2216    100277.88    -119221.9   -85678.955    52.795027 
 1088000   -1225.8257    3712.8518     15387.81    4822.3433    168.88832   -96355.228    8707.9706   -87647.257    348.48427    1722.4094    100034.78    -119221.3   -85134.426    52.817781 
 1089000   -1200.2541    3706.5063    15344.112    4830.7162    175.99214   -96419.817    8763.7095   -87656.108    350.71489    657.59173     99916.36   -119276.89    -86697.88    51.949763 
 1090000   -1207.7581    3782.7266    15439.998    4730.4692    177.93367   -96337.511    8751.2481   -87586.263     350.2162     1238.457    99044.967   -119260.88    -85797.35    51.393776 
 1091000   -1239.9998    3810.3701    15458.178    4836.9582    180.56387   -96242.815    8763.6162   -87479.199    350.71116    1451.7536    100135.42   -119288.89   -85359.098    52.293794 
 1092000   -1217.6716    3672.0781    15375.375     4793.876    169.16228   -96426.107    8876.9681   -87549.139    355.24738    1510.2265    99170.953   -119218.93   -85364.889    51.645109 
 1093000    -1208.915     3702.605     15414.51    4758.9301    152.67477   -96474.597      8676.76   -87797.837    347.23526    1591.7353    99508.697    -119294.4   -85487.859     52.29573 
 1094000   -1237.8545    3715.1547    15385.764    4881.6019    164.27768   -96330.749     8797.644   -87533.105    352.07292    843.84719    100293.33   -119239.69    -86298.83    52.657511 
 1095000    -1153.031    3695.0849    15416.547    4792.9699    160.53613   -96364.874    8940.4831   -87424.391    357.78919     2086.033    99432.411   -119276.98   -84399.394    52.085965 
 1096000   -1252.0848    3673.4626     15467.93    4863.7737    189.25716   -96333.329    8714.9327   -87618.396    348.76289    1173.6906    100042.91   -119275.67   -85905.954    53.017864 
 1097000   -1209.9062    3725.5793    15402.083    4786.7123    152.39334   -96453.569    8684.7289    -87768.84    347.55416    478.32386    100071.98   -119310.43   -87070.752    52.289099 
 1098000   -1226.1366    3645.3897    15423.196    4847.7736     165.6182   -96371.235    8779.3432   -87591.892    351.34053    673.84451    99921.606   -119227.08    -86609.93    51.663295 
 1099000   -1243.7919    3687.5452    15361.162    4839.3229     162.6316   -96433.542     8672.117   -87761.425    347.04945    1080.3758    99637.773   -119240.41   -86191.515    53.332079 
 1100000   -1194.7704    3554.4463    15459.529    4741.0145    166.78098   -96486.348    8836.8444   -87649.504    353.64167    1596.4904    98623.637   -119213.35   -85353.233    51.958576 
 1101000   -1251.6548    3700.2087    15411.748    4779.5011    161.29651   -96464.669    8691.5077   -87773.162    347.82545     861.8768    99885.313   -119265.77   -86517.644    52.062294 
Loop time of 9427.08 on 56 procs for 500000 steps with 8384 atoms

Performance: 4.583 ns/day, 5.237 hours/ns, 53.039 timesteps/s
97.6% CPU use with 56 MPI tasks x no OpenMP threads

MPI task timing breakdown:
Section |  min time  |  avg time  |  max time  |%varavg| %total
---------------------------------------------------------------
Pair    | 5573.8     | 6419       | 7163       | 477.0 | 68.09
Bond    | 162.78     | 211.01     | 264.35     | 184.4 |  2.24
Kspace  | 1148.8     | 1931.3     | 2827.9     | 909.9 | 20.49
Neigh   | 90.61      | 90.956     | 91.334     |   3.0 |  0.96
Comm    | 102.14     | 125.49     | 171.5      | 167.5 |  1.33
Output  | 0.036279   | 0.036674   | 0.04577    |   0.6 |  0.00
Modify  | 481.14     | 607.55     | 666.2      | 213.2 |  6.44
Other   |            | 41.73      |            |       |  0.44

Nlocal:        149.714 ave         170 max         125 min
Histogram: 2 1 3 9 12 7 7 5 6 4
Nghost:        5908.52 ave        6008 max        5779 min
Histogram: 1 3 3 6 6 9 11 10 6 1
Neighs:        72264.0 ave       83358 max       59976 min
Histogram: 3 1 8 7 9 7 4 8 4 5

Total # of neighbors = 4046785
Ave neighs/atom = 482.67951
Ave special neighs/atom = 6.1984733
Neighbor list builds = 19706
Dangerous builds = 0
write_data      data_3_100MPa.*
System init for write_data ...
PPPM initialization ...
  using 12-bit tables for long-range coulomb (../kspace.cpp:340)
  G vector (1/distance) = 0.27487514
  grid = 45 50 54
  stencil order = 5
  estimated absolute RMS force accuracy = 0.0002331963
  estimated relative force accuracy = 7.0226373e-07
  using double precision FFTW3
  3d grid and FFT values/proc = 8700 2520
WARNING: Not all mixed pair coeffs generated from mixing. Use write_data with 'pair ij' option to store all pair coeffs. (../write_data.cpp:312)
unfix 1


#-------------------------------------------------------------------------------
shell cat log.lammps | grep -v '[a-zA-Z]' | grep -v '^[[:space:]]*$' | grep -v '}' | grep -v '^-*$' | grep -v '^#*$' | grep -v '#-' | tail -n +4 > lmps-${PRES}.dat
ERROR on proc 0: Substitution for illegal variable PRES (../input.cpp:617)
